LAMMPS data file via write_data, version 29 Aug 2024, timestep = 1000000, units = real

4459 atoms
13 atom types
4459 bonds
13 bond types
6517 angles
19 angle types
8918 dihedrals
26 dihedral types

3.7464311364450715 41.25356886354725 xlo xhi
3.7464311364450715 41.25356886354725 ylo yhi
3.7464311364450715 41.25356886354725 zlo zhi

Masses

1 12.011
2 12.011
3 12.011
4 12.011
5 12.011
6 12.011
7 15.999
8 1.008
9 1.008
10 1.008
11 1.008
12 1.008
13 1.008

Pair Coeffs # lj/charmmfsw/coul/long

1 0.07 3.55005 0.07 3.55005
2 0.07 3.55005 0.07 3.55005
3 0.07 3.55005 0.07 3.55005
4 0.07 3.55005 0.07 3.55005
5 0.07 3.55005 0.07 3.55005
6 0.07 3.55005 0.07 3.55005
7 0.192101 3.14487 0.192101 3.14487
8 0.03 2.42004 0.03 2.42004
9 0.03 2.42004 0.03 2.42004
10 0.03 2.42004 0.03 2.42004
11 0.03 2.42004 0.03 2.42004
12 0.03 2.42004 0.03 2.42004
13 0.045999 0.400014 0.045999 0.400014

Bond Coeffs # harmonic

1 305 1.375
2 305 1.375
3 305 1.375
4 305 1.375
5 305 1.375
6 334.3 1.411
7 340 1.08
8 340 1.08
9 340 1.08
10 340 1.08
11 340 1.08
12 545 0.96
13 305 1.375

Angle Coeffs # charmm

1 40 120 35 2.4162
2 40 120 35 2.4162
3 40 120 35 2.4162
4 40 120 35 2.4162
5 45.2 120 0 0
6 30 120 22 2.1525
7 30 120 22 2.1525
8 30 120 22 2.1525
9 30 120 22 2.1525
10 30 120 22 2.1525
11 65 108 0 0
12 30 120 22 2.1525
13 40 120 35 2.4162
14 30 120 22 2.1525
15 40 120 35 2.4162
16 45.2 120 0 0
17 30 120 22 2.1525
18 30 120 22 2.1525
19 30 120 22 2.1525

Dihedral Coeffs # charmmfsw

1 3.1 2 180 1
2 3.1 2 180 1
3 3.1 2 180 1
4 0.99 2 180 1
5 2.4 2 180 1
6 3.1 2 180 0
7 3.1 2 180 0
8 4.2 2 180 1
9 4.2 2 180 1
10 4.2 2 180 1
11 4.2 2 180 1
12 4.2 2 180 1
13 2.4 2 180 1
14 2.4 2 180 1
15 2.4 2 180 1
16 2.4 2 180 1
17 0.99 2 180 1
18 4.2 2 180 1
19 4.2 2 180 1
20 3.1 2 180 1
21 4.2 2 180 1
22 3.1 2 180 0
23 4.2 2 180 1
24 4.2 2 180 1
25 2.4 2 180 1
26 3.1 2 180 1

Atoms # full

1967 152 4 0.107 5.200236051364368 10.802596903953475 10.047901570310987 1 -1 1
746 58 5 -0.113 4.883082913728707 6.584868700041881 10.92935534124154 1 0 0
2930 226 5 -0.113 7.765194946283913 6.6871175102960745 4.670832115529583 0 1 0
1970 152 7 -0.533 4.365222840886228 9.798628039575512 10.51437333761476 1 -1 1
1966 152 3 -0.113 6.487492756055712 10.551171190382764 9.465794793259441 1 -1 1
1352 104 13 0.42 4.766931003418805 11.48959416518683 7.2283681330545555 1 -1 1
752 58 11 0.115 4.987212590144014 6.4146718648275 11.955404878002929 1 0 0
1964 152 1 -0.115 6.79171793663233 12.965132059155861 9.250841861625023 1 -1 1
744 58 3 -0.113 5.81040143641583 6.999865168652875 8.746066719136596 1 0 0
2936 226 11 0.115 7.394347575881589 5.87923091054803 4.0403751214732795 0 1 0
1965 152 2 -0.114 7.205884387327428 11.627218244074172 9.004681154838737 1 -1 1
2935 226 10 0.115 7.06013848089184 9.823216816653964 5.924106191422986 0 1 0
110 9 6 -0.114 7.71082182097682 3.9790080738890303 6.638329585462635 0 1 0
743 58 2 -0.114 4.520437982743485 7.077717277746231 8.264466961709022 1 0 0
745 58 4 0.107 6.000001318242196 6.867730294103803 10.09723365187177 1 0 0
1968 152 5 -0.113 4.715264954997031 12.131427937196888 10.16027264841879 1 -1 1
1973 152 10 0.115 6.858996843572607 9.54520525727715 9.292429559824914 1 -1 1
1972 152 9 0.115 8.196693482984802 11.396587738370437 8.542521831281983 1 -1 1
748 58 7 -0.533 7.27578510309933 6.803284016513675 10.653662577440798 1 0 0
751 58 10 0.115 6.5984596080387625 7.200008599432891 8.081666886557134 1 0 0
2929 226 4 0.107 6.972578206677387 7.825163527895863 5.014636239853472 0 1 0
2938 226 13 0.42 5.357934171346587 8.865049480135832 4.5592288267688215 0 1 0
2928 226 3 -0.113 7.571342197572548 8.927401693786791 5.663409811095766 0 1 0
1346 104 7 -0.533 4.540562894054231 10.975455470659762 6.427604027006318 1 -1 1
2932 226 7 -0.533 5.594308315385362 7.9270204016228085 4.718903805229411 0 1 0
750 58 9 0.115 4.436263019616497 7.3450428270650905 7.1700589946735676 1 0 0
2622 202 9 0.115 8.13247386991472 11.488797953522454 12.335123992182782 1 0 0
116 9 12 0.115 7.53218802954237 4.769342490802592 7.370803027088838 0 1 0
754 58 13 0.42 7.149218828649195 6.158498659523335 11.38658666364029 1 0 0
1976 152 13 0.42 4.768694903401639 8.925650972589045 10.388164324071436 1 -1 1
1087 84 8 0.115 4.387714022727357 11.844661801930656 3.8045410416650083 -1 1 2
1780 137 12 0.115 5.363042618914846 13.0136621602155 5.317104450818097 0 1 1
1256 97 8 0.115 5.947523869687514 9.671366611431637 18.10647294963447 0 0 0
530 41 10 0.115 5.767686863891448 7.258586297119274 14.12198744881211 -1 1 1
2619 202 6 -0.114 6.596943265670055 11.02448426241705 15.303766694676689 1 0 0
1257 97 9 0.115 5.144949734970208 9.600942077206225 20.3874255227545 0 0 0
527 41 7 -0.533 4.958600143711849 4.865970706107803 14.449089380043512 -1 1 1
1067 83 1 -0.115 7.428930625338333 5.140130447578315 18.585696678103936 0 1 1
523 41 3 -0.113 6.58707081662069 6.5921962837545784 14.444351654667516 -1 1 1
524 41 4 0.107 6.349363342095659 5.252421107255679 14.589762267967748 -1 1 1
1072 83 6 -0.114 6.398444649628271 5.777447546343107 19.292119368403355 0 1 1
2621 202 8 0.115 5.937946416026015 10.717853187413848 13.380206418478673 1 0 0
2618 202 5 -0.113 7.714509820376761 11.343829120797116 16.157597761720993 1 0 0
2625 202 12 0.115 5.654838912678567 10.622961900224507 15.864355071139011 1 0 0
1074 83 8 0.115 8.101068298265119 5.584627530930271 17.809032161015757 0 1 1
1078 83 12 0.115 6.141748384378463 6.897755101865911 19.217467069112264 0 1 1
1249 97 1 -0.115 5.02925880859536 9.163375951947408 18.269658898239747 0 0 0
1250 97 2 -0.114 4.541595103772588 9.147611492965794 19.604491848874574 0 0 0
1071 83 5 -0.113 5.428476185737783 5.0427883914192595 19.951066514282438 0 1 1
525 41 5 -0.113 7.283008365177393 4.339273964272276 15.012356245353407 -1 1 1
1260 97 12 0.115 4.546658401009089 8.69440648619973 16.242626314896633 0 0 0
3395 262 2 -0.114 5.476417857012552 12.522660374614464 19.738262486734833 1 0 0
3402 262 9 0.115 5.692402402524784 12.26762377106292 18.74330054588706 1 0 0
1077 83 11 0.115 4.605966368581366 5.584936383262867 20.38939917901321 0 1 1
1068 83 2 -0.114 7.6855407607452655 3.7977773583689927 18.878566797765142 0 1 1
2624 202 11 0.115 7.679996082771488 11.152509524492123 17.25722151867454 1 0 0
3394 262 1 -0.115 4.1663200412366095 12.506444149292506 20.22325023964845 1 0 0
533 41 13 0.42 4.9049843222931315 3.842964391218545 14.509739769162506 -1 1 1
3396 262 3 -0.113 6.54341913890428 12.929054114458781 20.57557669655249 1 0 0
2614 202 1 -0.115 6.701737461484102 11.13876758903507 13.929861821906153 1 0 0
3399 262 6 -0.114 3.96476350816725 12.771729868964487 21.614118833898594 1 0 0
1254 97 6 -0.114 4.161043167580789 8.772652444768582 17.23136458480905 0 0 0
522 41 2 -0.114 7.843025923239315 7.09677675062455 14.835348519170049 -1 1 1
2615 202 2 -0.114 7.981332259819263 11.470197737877356 13.379018662072559 1 0 0
529 41 9 0.115 8.104546710344668 8.13059839788184 14.628215834317905 -1 1 1
3403 262 10 0.115 7.580193344809275 13.016879713834472 20.188889627267905 1 0 0
3398 262 5 -0.113 5.018186048633394 13.114125638073034 22.445222879950883 1 0 0
343 27 5 -0.113 7.554772832449991 3.7791649511033003 24.482688296738022 0 -1 0
349 27 11 0.115 6.792423109816408 4.57651442909172 24.58361475013628 0 -1 0
3524 272 1 -0.115 4.545830677827226 8.6139380915481 27.09097208652541 1 1 0
538 42 5 -0.113 3.9600706243451715 11.524120217702782 31.524816470809732 -1 1 1
3533 272 10 0.115 6.915197844846933 9.377131266892846 29.488723846006152 1 1 0
3528 272 5 -0.113 6.491642034934802 7.141418626888506 26.9153958353977 1 1 0
1743 135 1 -0.115 5.449721104005621 7.700175896814507 23.116629975863606 1 -1 0
3532 272 9 0.115 4.795477046464534 10.255645076176828 28.4436516386675 1 1 0
1754 135 12 0.115 7.002244183060425 6.305029654883011 22.67864227338456 1 -1 0
1745 135 3 -0.113 6.119393060634092 9.739730414077787 24.231717958811156 1 -1 0
672 52 9 0.115 5.010777525566889 5.51311855815889 30.84358730014538 0 0 -2
1750 135 8 0.115 4.645606523422799 7.147927122171254 22.70365231773897 1 -1 0
1752 135 10 0.115 5.737717067978451 10.730140512518478 24.60698508410852 1 -1 0
3535 272 12 0.115 4.666980311223003 7.07651653101833 25.767212379505903 1 1 0
345 27 7 -0.533 8.061327319187766 3.8730205172851195 26.931821898436592 0 -1 0
673 52 10 0.115 5.687997464270201 4.213515179718524 28.841477872822946 0 0 -2
3534 272 11 0.115 6.99458448867547 6.401727684117245 26.22485075136734 1 1 0
3530 272 7 -0.533 8.374300861879423 7.432276849851165 28.408902507498667 1 1 0
1749 135 7 -0.533 8.391319478654125 9.959847001768173 25.116271919061763 1 -1 0
3525 272 2 -0.114 5.235216108609683 9.303776189372837 28.12646707620365 1 1 0
3529 272 6 -0.114 5.242424629821219 7.527207273022567 26.596391790776792 1 1 0
1748 135 6 -0.114 6.769332874386094 7.277468217389449 23.11094804459442 1 -1 0
544 42 11 0.115 4.0420492360115645 12.553687315602248 31.36743447556893 -1 1 1
3526 272 3 -0.113 6.432340642202924 8.840331852467653 28.650022125613 1 1 0
3527 272 4 0.107 7.084748173419304 7.81782049476459 28.009413737364284 1 1 0
665 52 2 -0.114 4.267875162699763 5.143568739961687 30.229968846704708 0 0 -2
1755 135 13 0.42 7.936923208057009 10.747264806965225 25.54898216377943 1 -1 0
1751 135 9 0.115 4.101769594657524 9.282404144954771 23.47687659449831 1 -1 0
666 52 3 -0.113 4.61284846739867 4.432453016637706 29.01266448545954 0 0 -2
1744 135 2 -0.114 5.146862698621466 8.939495771411957 23.618237176662777 1 -1 0
3438 265 6 -0.114 7.808927791715185 4.109533936944685 31.371038303949852 0 1 0
1746 135 4 0.107 7.420921681175452 9.242194671377678 24.341452968684386 1 -1 0
1747 135 5 -0.113 7.755633647244778 8.04019476423792 23.68322309052753 1 -1 0
3443 265 11 0.115 7.438551839978386 6.0532097150886255 30.28328687371982 0 1 0
3437 265 5 -0.113 7.914799295050437 5.521098459904275 31.117284662605666 0 1 0
1084 84 5 -0.113 6.7728241236434386 9.786837441068641 39.905413271517006 -1 1 1
1092 84 13 0.42 5.7752248631640715 7.469235119370429 37.91487617672118 -1 1 1
2197 169 13 0.42 5.375519336378083 5.749236501134266 36.93560187727499 1 0 -1
1793 138 12 0.115 7.939076747233145 9.058292689454037 36.75586382892216 1 0 0
1086 84 7 -0.533 6.3749543382666864 7.700635525483488 38.66769579548152 -1 1 1
1082 84 3 -0.113 4.566908594189661 8.871434739458207 39.652333898967555 -1 1 1
1089 84 10 0.115 3.883622151323104 8.236358409007469 39.23310432064078 -1 1 1
3900 300 13 0.42 5.122148229899272 4.289907759876075 38.847231897486694 2 0 0
1090 84 11 0.115 7.823156713226182 9.648580434025595 39.75532423237907 -1 1 1
545 42 12 0.115 5.46959289295885 11.628337336439328 33.09423149542778 -1 1 1
1080 84 1 -0.115 4.874670186905603 11.039583349968625 40.75913720066451 -1 1 1
2194 169 10 0.115 4.243448322083417 4.049961851745916 35.467757488179714 1 0 -1
541 42 8 0.115 5.474512470970871 9.254464816950073 33.33109274241299 -1 1 1
1792 138 11 0.115 8.210110281626559 8.682910895453215 34.32117290242462 1 0 0
2188 169 4 0.107 3.9986067981496483 6.232066292616129 35.573654603693385 1 0 -1
1081 84 2 -0.114 4.0680539636453545 10.003190612269284 40.33001031748039 -1 1 1
1677 129 13 0.42 5.020309456475223 5.944001124015441 41.08018310262116 0 1 -1
1083 84 4 0.107 5.90752263024306 8.840662928188205 39.38818816019547 -1 1 1
3894 300 7 -0.533 5.399185451954905 4.280033885440025 37.927814884247766 2 0 0
1085 84 6 -0.114 6.250650861379386 10.941762113268176 40.54114816698191 -1 1 1
2191 169 7 -0.533 5.121494520507861 6.494495052342378 36.354399848237165 1 0 -1
534 42 1 -0.115 4.857803990712442 9.650375133014748 32.5606302418185 -1 1 1
539 42 6 -0.114 4.820719873665098 11.014757461775648 32.429686873843416 -1 1 1
2652 204 13 0.42 8.31710519891882 6.871971270448216 38.734087027574205 1 1 -1
1671 129 7 -0.533 4.470504415993639 5.353119345410428 40.53976321480242 0 1 -1
1091 84 12 0.115 6.870270517672384 11.782272648864165 40.7616385552155 -1 1 1
542 42 9 0.115 3.990042517232258 7.762237572969327 32.019605998053024 -1 1 1
535 42 2 -0.114 3.97428867969313 8.861118635856071 31.882999501864113 -1 1 1
1440 111 10 0.115 4.8334948441232175 16.67143649248414 3.833388692009697 1 0 1
2165 167 7 -0.533 4.930793901973026 18.638161237604944 9.47742560725581 0 -1 1
2169 167 11 0.115 5.813229992602954 20.35948221914346 11.285278037849324 0 -1 1
2159 167 1 -0.115 7.418175655426469 17.734655286476276 12.778986867896391 0 -1 1
1975 152 12 0.115 5.100314366541788 14.197016858381405 9.775202612474846 1 -1 1
1777 137 9 0.115 8.06796011110719 15.920004705255534 6.790586404525459 0 1 1
2171 167 13 0.42 5.045100959186113 19.578869578662367 9.378588094376543 0 -1 1
2858 220 11 0.115 7.603363384572513 19.34640459295496 8.319374691578743 0 1 1
1969 152 6 -0.114 5.453347399903455 13.226979556777849 9.735436159550055 1 -1 1
2161 167 3 -0.113 6.069262959345276 16.978119715959785 10.898363138686188 0 -1 1
1771 137 3 -0.113 5.973847961358214 16.275758454312243 7.23644708944939 0 1 1
2162 167 4 0.107 5.659195840666666 18.296014482871584 10.601863294839296 0 -1 1
2163 167 5 -0.113 6.09682532040928 19.31541947982187 11.51397795347874 0 -1 1
1773 137 5 -0.113 4.3528494402117355 14.663921522547753 6.303095546359793 0 1 1
1774 137 6 -0.114 5.448591513129495 13.932698514586598 5.757565096749881 0 1 1
1769 137 1 -0.115 6.790138388479532 14.375618388332326 5.934595286486542 0 1 1
2855 220 8 0.115 6.096585728465572 19.74814793598894 4.326136822749218 0 1 1
1778 137 10 0.115 6.243747344844428 17.208880053105393 7.783253365243164 0 1 1
2859 220 12 0.115 5.735059012883143 19.8542130062807 6.760858099365945 0 1 1
1770 137 2 -0.114 7.033990269262892 15.532944916670552 6.711256023790271 0 1 1
1216 94 7 -0.533 4.548962246485049 21.916231253265618 8.462952521242286 0 0 1
1971 152 8 0.115 7.362180777471638 13.747747594070969 8.72937051756815 1 -1 1
2853 220 6 -0.114 6.739914196268195 19.661707656748945 6.430966514045373 0 1 1
2168 167 10 0.115 5.888777316240814 16.190230954488243 10.207266131493892 0 -1 1
1772 137 4 0.107 4.635296306311243 15.834402166727099 7.079293368378749 0 1 1
2848 220 1 -0.115 6.912976787705703 19.60021056104488 5.044115271503086 0 1 1
2164 167 6 -0.114 6.99559106481697 19.02501828180701 12.54777876362066 0 -1 1
2852 220 5 -0.113 7.783052779424775 19.285094031408644 7.299563939965097 0 1 1
2160 167 2 -0.114 6.850631893661699 16.653591736073523 12.03311523037179 0 -1 1
2167 167 9 0.115 7.0878350119975835 15.65925076163573 12.284289582486762 0 -1 1
1776 137 8 0.115 7.613134466038387 13.835642797200002 5.473929543714707 0 1 1
1781 137 13 0.42 4.019303014006985 17.43154294763854 7.975018627587916 0 1 1
1213 94 4 0.107 3.882272044023251 21.785374881426204 7.170214353329033 0 0 1
3665 282 12 0.115 4.339476099097583 14.80619962244236 12.958751133269141 0 1 -1
3326 256 11 0.115 8.32409294458079 21.802499154623344 8.224624160658937 2 -1 -1
2849 220 2 -0.114 8.143272180215007 19.31089241834885 4.499526758716699 0 1 1
2170 167 12 0.115 7.5407615106635335 19.752462703844103 13.095981588383967 0 -1 1
3662 282 9 0.115 4.688941340388697 14.74545387919983 17.16174372235465 0 1 -1
3655 282 2 -0.114 4.3762505059418535 14.246359702633614 16.257878447604874 0 1 -1
1542 119 8 0.115 4.846826338557076 16.77298712719187 18.747328904653067 1 0 1
3661 282 8 0.115 5.033644281578475 15.89856590478421 15.004860084188941 0 1 -1
3397 262 4 0.107 6.295786539270109 13.283044985081593 21.918504029753723 1 0 0
2787 215 5 -0.113 7.169683345455054 17.658418130885327 17.773227881231485 0 1 1
2789 215 7 -0.533 7.992016170945828 17.648779581900367 20.130460841235337 0 1 1
3654 282 1 -0.115 4.466973438992585 14.981744886027332 15.018720356484106 0 1 -1
2778 214 9 0.115 5.035889655751833 19.988858730293664 17.658214308976753 0 0 0
2166 167 8 0.115 8.057600381547221 17.49582640208013 13.63472410312094 0 -1 1
415 32 12 0.115 6.405580210883784 20.423627008448616 15.023839617304178 0 1 1
4397 339 3 -0.113 8.060799114518801 20.682746591801116 22.31059086621272 1 2 0
4401 339 7 -0.533 6.651688652582688 19.987627127147302 20.53358384887143 1 2 0
4407 339 13 0.42 6.2463851192193305 19.72264294553157 21.386343670979965 1 2 0
2793 215 11 0.115 6.538354500042679 18.507582860118838 17.96762140406895 0 1 1
409 32 6 -0.114 7.121175209484265 21.151172684537425 15.49640532360165 0 1 1
4398 339 4 0.107 7.812730531957105 20.67216792262563 20.929311148840434 1 2 0
2794 215 12 0.115 6.434961013051268 17.531022749082375 15.867996073715444 0 1 1
1546 119 12 0.115 5.113443512803926 15.33314493231932 20.867767911414298 1 0 1
2786 215 4 0.107 7.985456881995283 17.115591160924595 18.74652993298067 0 1 1
2788 215 6 -0.114 7.077899670682225 17.014483260890998 16.529820797135343 0 1 1
2777 214 8 0.115 5.009601600441106 22.01626195243614 18.98552041282166 0 0 0
2771 214 2 -0.114 4.22104997111285 20.638777099918226 17.590188348005388 0 0 0
3659 282 6 -0.114 4.046088056700312 14.422219499894656 13.844494829597943 0 1 -1
2790 215 8 0.115 7.760576999990313 15.439432637405188 15.292589129992669 0 1 1
2783 215 1 -0.115 7.828488157738481 15.889683753287015 16.254941031112978 0 1 1
1540 119 6 -0.114 4.310638046532203 16.045828920156524 20.75024071553222 1 0 1
2795 215 13 0.42 7.472527390221408 18.47020000016516 20.214326482864323 0 1 1
404 32 1 -0.115 6.653423618589568 22.378305975786954 15.918000758326253 0 1 1
1535 119 1 -0.115 4.152467004681917 16.827776664186302 19.59798194678931 1 0 1
3406 262 13 0.42 8.18500596441692 13.603971646365093 22.189204496259517 1 0 0
869 67 11 0.115 8.002412421698926 16.641660702386798 22.457237895361228 0 0 0
2770 214 1 -0.115 4.1568438991143095 21.785077394525608 18.358025391057858 0 0 0
3107 239 13 0.42 7.218135479912551 13.575981211619073 24.72687975370518 1 1 0
3400 262 7 -0.533 7.367560177721362 13.666326761580986 22.726157630921012 1 0 0
2847 219 13 0.42 7.699005807598855 21.756206325322946 28.732313820953006 0 -1 -1
3095 239 1 -0.115 8.305207637611705 15.23067503290258 28.90704299475642 1 1 0
2841 219 7 -0.533 7.753636865633216 21.85524957333718 27.73976007564866 0 -1 -1
859 67 1 -0.115 7.08786545095019 18.065417527296493 25.47101919251621 0 0 0
2750 212 7 -0.533 7.929182714298724 21.613072681858565 30.54574758003712 0 0 -1
1319 102 6 -0.114 4.377744967851386 16.613142938933713 28.739136521853556 -1 -1 0
810 63 4 0.107 3.849596718654794 20.29335840903946 23.746042836668522 1 1 1
3097 239 3 -0.113 6.7170954060901344 13.667080899282809 27.850617844883494 1 1 0
811 63 5 -0.113 4.111550845988111 21.640514390544663 24.110330237450658 1 1 1
3101 239 7 -0.533 6.86209590623603 13.125521097106128 25.51204827294362 1 1 0
1325 102 12 0.115 5.018467242563766 16.001663079480977 28.170226224117055 -1 -1 0
3404 262 11 0.115 4.689737372109677 13.361497345369502 23.461822042989816 1 0 0
860 67 2 -0.114 8.34174805786019 18.66168699629036 25.72809130157534 0 0 0
2456 189 12 0.115 4.295892294271558 14.649851170877755 26.345989551789774 1 0 0
4404 339 10 0.115 7.395436582569816 20.244673250778455 23.006241604677342 1 2 0
864 67 6 -0.114 6.92479525971094 17.35562876798033 24.23349110796478 0 0 0
1322 102 9 0.115 4.386177763749484 19.898277768826702 29.770455879994742 -1 -1 0
870 67 12 0.115 5.919623760377313 17.063083305874635 24.01116130313468 0 0 0
1321 102 8 0.115 5.795655934959342 18.285417653840547 28.456626904973305 -1 -1 0
1314 102 1 -0.115 4.801024946824603 17.9328441266276 28.87880314241787 -1 -1 0
866 67 8 0.115 6.2790481868014085 18.073642115707607 26.121286161138897 0 0 0
813 63 7 -0.533 4.400208796962642 19.742887183576542 22.612640215931687 1 1 1
863 67 5 -0.113 7.994879512882008 17.153414251263506 23.36178008201335 0 0 0
3103 239 9 0.115 6.530045589386808 14.348099951356815 29.919895297546272 1 1 0
3096 239 2 -0.114 7.159949652151971 14.395179289773623 28.964938226664472 1 1 0
3098 239 4 0.107 7.380262257075453 13.83260950161401 26.63552803341645 1 1 0
2756 212 13 0.42 7.399007458688626 22.11411709221333 31.186638376863392 0 0 -1
1315 102 2 -0.114 4.054312572653538 18.81403693714427 29.62512746029355 -1 -1 0
817 63 11 0.115 4.773539628908733 22.241767270505544 23.552754835114133 1 1 1
3104 239 10 0.115 5.752343083288249 13.124491103162315 27.834063309046705 1 1 0
819 63 13 0.42 3.913069296756283 18.92102931531162 22.516726959400632 1 1 1
3015 232 12 0.115 4.0113428513165665 14.673998094599778 39.768812561806655 0 1 -1
1443 111 13 0.42 6.262964345964865 16.56113326662463 39.62428075087034 1 0 0
695 54 6 -0.114 4.154011516650059 15.862346165186144 34.61494780277646 0 0 0
4243 327 5 -0.113 8.179891352183667 21.023814166578582 36.26591197938505 1 0 1
2052 158 11 0.115 5.105437879117732 22.18679041871991 38.83354844056177 -1 -1 0
696 54 7 -0.533 6.959240859418157 17.647593582921324 36.43377683734764 0 0 0
2053 158 12 0.115 6.447114232972279 21.872999384791562 41.09420454214826 -1 -1 0
933 72 10 0.115 5.362080225424883 21.538925240671045 32.092311181636305 -1 0 -1
693 54 4 0.107 6.05407749278204 17.20669195821356 35.39805664792193 0 0 0
1434 111 4 0.107 4.629809275861894 17.62991366396025 39.414145184724404 1 0 0
660 51 10 0.115 7.415903493966274 14.65826916898216 34.23968905386695 1 0 -1
4251 327 13 0.42 5.851635659193555 19.67412877465931 36.41077359366302 1 0 1
1433 111 3 -0.113 4.184098471538155 17.186177153483612 40.660244441722924 1 0 0
1435 111 5 -0.113 3.8362116228429017 18.41568495970919 38.602372131370046 1 0 0
691 54 2 -0.114 5.792327308255108 16.677854730925663 33.0114401378931 0 0 0
694 54 5 -0.113 4.826807097056485 16.515140451694087 35.68028800002834 0 0 0
1441 111 11 0.115 4.238720622997985 18.7554872568407 37.69380498487581 1 0 0
692 54 3 -0.113 6.5400115059258965 17.302476304567342 34.03167376591567 0 0 0
702 54 13 0.42 6.661172419750954 17.415949910071728 37.328089437988 0 0 0
134 11 4 0.107 8.356791547292929 14.959791685158656 39.45664767782847 0 0 0
926 72 3 -0.113 4.663563184841095 22.394350358721265 31.93186140289449 -1 0 -1
700 54 11 0.115 4.372395787273829 16.54811376880275 36.64657593787567 0 0 0
1437 111 7 -0.533 6.024220712760563 17.389518877686477 39.121795682193735 1 0 0
4242 327 4 0.107 6.876451256416855 21.26441133560288 35.75515804340978 1 0 1
2856 220 9 0.115 8.2012667550805 19.33470916376455 40.89791628768107 0 1 0
4245 327 7 -0.533 5.790865873344285 20.39632653725969 35.78661776115662 1 0 1
690 54 1 -0.115 4.710675134272385 15.815470989253907 33.339327080801425 0 0 0
143 11 13 0.42 6.805831359209199 13.91498295138943 39.071390216140145 0 0 0
3011 232 8 0.115 4.575125034872504 13.795158638794682 37.789789707461594 0 1 -1
2964 228 13 0.42 4.257680034674857 21.18407500802601 36.336383360681666 1 0 1
137 11 7 -0.533 7.002143928145587 14.58601020698357 39.73716955522552 0 0 0
699 54 10 0.115 7.438846014255212 17.860675338164526 33.77868065914189 0 0 0
697 54 8 0.115 4.215372919474278 15.214069023591348 32.53225160644162 0 0 0
4249 327 11 0.115 8.428464967367034 19.989545958050307 36.63218828664739 1 0 1
698 54 9 0.115 6.220335981417014 16.65889907844383 31.986365359055497 0 0 0
2753 212 10 0.115 8.044146052350023 21.237971485569666 33.10602591846157 0 0 -1
652 51 2 -0.114 8.102116018978322 13.611766022786291 32.59353105607714 1 0 -1
140 11 10 0.115 8.268887340342165 16.296212546253113 41.216320889450245 0 0 0
653 51 3 -0.113 8.33710885397716 14.433437497194953 33.65793654267931 1 0 -1
659 51 9 0.115 7.096387754354419 13.298373001145455 32.38309753841662 1 0 -1
4340 334 11 0.115 6.079817479738761 26.84917939752495 8.637666422983315 1 0 -1
3746 289 2 -0.114 8.034154339889252 29.528471966676765 9.89664461980772 0 1 -1
1219 94 10 0.115 4.914964548221469 23.58834889219685 6.327502990555331 0 0 1
2049 158 8 0.115 7.280209203854148 23.764499677002622 4.746679196252001 -1 -1 1
3752 289 8 0.115 6.209814061755261 30.03424910470344 8.671878577113596 0 1 -1
4336 334 7 -0.533 4.2065867923372435 25.074818594043084 9.61762493211588 1 0 -1
3327 256 12 0.115 7.129685712027506 23.879669303651383 8.939789639688588 2 -1 -1
4335 334 6 -0.114 4.910371409631825 27.721775201886814 7.027757872809678 1 0 -1
4334 334 5 -0.113 5.096816081870918 26.819790590140553 8.135535042608744 1 0 -1
3316 256 1 -0.115 7.8663743736910865 23.750567182616336 10.990054510565372 2 -1 -1
4341 334 12 0.115 5.667100109679572 28.41595725346061 6.670180080560428 1 0 -1
3321 256 6 -0.114 7.640792388297037 23.299445497534673 9.693468660082097 2 -1 -1
3115 240 8 0.115 8.30104744276026 27.064659854811687 7.205431512386516 0 1 0
1222 94 13 0.42 4.865654650903318 22.801216502348748 8.429375758807327 0 0 1
2504 193 8 0.115 4.017244276428151 27.422436572893567 11.02621379895686 0 0 0
2506 193 10 0.115 4.250648418361607 31.254929746000318 13.015692110450207 0 0 0
3753 289 9 0.115 8.141355566282567 28.480805041123084 9.63038014354523 0 1 -1
2505 193 9 0.115 5.497402800709225 29.29459383392808 12.032902512192681 0 0 0
3745 289 1 -0.115 6.946311098557233 30.30439821512757 9.415915804022319 0 1 -1
4333 334 4 0.107 4.117839955516607 25.833636693815354 8.467556810857895 1 0 -1
3323 256 8 0.115 7.447345038864967 24.74645221464129 11.255041465324005 2 -1 -1
1212 94 3 -0.113 4.252382765872694 22.767018667667887 6.099913267115419 0 0 1
2498 193 2 -0.114 4.385897683829212 29.318505413237855 11.997778388069262 0 0 0
3750 289 6 -0.114 6.7994565281606185 31.620607204194318 9.993631468579878 0 1 -1
411 32 8 0.115 5.641005902726062 22.662950038802343 15.734048865584871 0 1 1
1525 118 4 0.107 5.634040870274173 27.80840005912041 16.535030567146293 0 0 1
1534 118 13 0.42 6.980547394392442 28.912325269596828 15.79486151996731 0 0 1
1532 118 11 0.115 5.898923445744887 26.78230175461822 18.367647497803333 0 0 1
3735 288 4 0.107 7.393490696580292 25.32480647719798 20.408145422772876 1 1 0
3743 288 12 0.115 4.864301618512323 23.067330281429683 20.97375203066681 1 1 0
2743 211 13 0.42 7.823382975651563 29.955152513722073 13.819396073696435 1 -1 2
1526 118 5 -0.113 5.380927227251541 26.882152032193012 17.47595459822012 0 0 1
1193 92 10 0.115 6.232240990667705 31.634078783309043 16.886437663528703 1 1 0
2740 211 10 0.115 7.487415104408923 26.613336319372593 14.427373311316082 1 -1 2
412 32 9 0.115 7.171474857437788 24.27243447142621 16.800868713407834 0 1 1
4317 333 1 -0.115 6.605989370771133 29.938150016184988 22.198036102475772 0 -1 0
3736 288 5 -0.113 6.624735283827897 24.126530856040617 20.403285097627503 1 1 0
1528 118 7 -0.533 6.7701613787458435 28.674184444483817 16.704459631767225 0 0 1
4322 333 6 -0.114 5.817191786960563 29.517886857858525 21.10984760595503 0 -1 0
4327 333 11 0.115 3.921555639575602 28.856014060781416 20.50605536964514 0 -1 0
1533 118 12 0.115 3.838746151501985 25.310326215168 18.02850044261197 0 0 1
3742 288 11 0.115 6.878599595174283 23.341269544524494 19.689070650058312 1 1 0
3732 288 1 -0.115 5.023808533113993 24.943875983450912 21.972977219463452 1 1 0
4321 333 5 -0.113 4.542476755287593 29.11838044165508 21.31940604181092 0 -1 0
1531 118 10 0.115 5.214945313808226 28.5146798154301 14.484680273100961 0 0 1
4328 333 12 0.115 6.140426783369154 29.772569041242814 20.11677975869308 0 -1 0
3737 288 6 -0.114 5.5028929647939275 23.943157594798077 21.146170378811007 1 1 0
1190 92 7 -0.533 8.187951708888793 31.78938036708705 15.215382375505916 1 1 0
3734 288 3 -0.113 6.921225512500041 26.31377713444251 21.31707217825289 1 1 0
1187 92 4 0.107 8.32463192450981 31.787001059099513 16.61734268476829 1 1 0
3741 288 10 0.115 7.430849699421737 27.26307890193767 21.393559790871798 1 1 0
1524 118 3 -0.113 4.945863385352093 27.820477918440073 15.310736159703199 0 0 1
1527 118 6 -0.114 4.235861595226629 26.064677989195555 17.35707252387327 0 0 1
2737 211 7 -0.533 7.5142165083729875 29.085794393815636 13.831037804362499 1 -1 2
4324 333 8 0.115 7.648973901437538 30.034020938521735 21.953156103669073 0 -1 0
405 32 2 -0.114 7.540185048974253 23.346136334918196 16.42389286559286 0 1 1
3733 288 2 -0.114 5.831767035854435 26.112661968961635 22.168439951862457 1 1 0
1186 92 3 -0.113 7.164515724464491 31.716888889767606 17.392828311789735 1 1 0
1274 98 13 0.42 8.27695144037427 28.7275927493559 18.565290088953624 0 -1 1
1185 92 2 -0.114 7.284474071736247 31.819972512594987 18.833353710187957 1 1 0
1192 92 9 0.115 6.387356767644468 31.737455081427594 19.577435525840343 1 1 0
1523 118 2 -0.114 3.75205017034986 27.101066376358652 15.207482472750055 0 0 1
3739 288 8 0.115 4.067145822335337 25.025497745729016 22.354030320197726 1 1 0
4319 333 3 -0.113 4.752314972405712 29.310007862882177 23.730756242588054 0 -1 0
2837 219 3 -0.113 5.846844243881632 23.295679236659836 28.281092215511055 0 -1 -1
2843 219 9 0.115 4.360393177949722 24.788709015035977 28.510890241763143 0 -1 -1
891 69 7 -0.533 6.583915442878181 29.606938538071095 26.879781166564673 1 1 0
2842 219 8 0.115 4.467291611070932 25.702312305776616 26.24381079320826 0 -1 -1
890 69 6 -0.114 4.898589461743088 28.683332357670952 30.08835420867223 1 1 0
896 69 12 0.115 4.927098980891165 28.020787057134722 30.958054726706496 1 1 0
2835 219 1 -0.115 5.121632113999132 24.865259854390857 26.51600482892833 0 -1 -1
2844 219 10 0.115 5.819204177265395 22.88728193955705 29.23013181283438 0 -1 -1
889 69 5 -0.113 5.915723726683003 28.83742169622115 29.16849579132329 1 1 0
2836 219 2 -0.114 5.058578441987782 24.39314173696225 27.860304620056528 0 -1 -1
1339 103 13 0.42 8.324429260670893 26.332934317326878 25.28558574103776 0 0 0
2845 219 11 0.115 7.342714810087779 22.664619633642694 25.280544394037165 0 -1 -1
1333 103 7 -0.533 8.296755889606512 26.988940281220373 25.956211128647535 0 0 0
888 69 4 0.107 5.663964451563824 29.627343677963 28.02915614306051 1 1 0
897 69 13 0.42 7.152252235723081 28.82901110089132 26.81353499196269 1 1 0
4326 333 10 0.115 4.42890342153517 29.188675989816584 24.789104906817453 0 -1 0
895 69 11 0.115 6.795767322444812 28.130737730478035 29.07560009598221 1 1 0
4236 326 11 0.115 8.004447798506776 26.063648104747912 30.41267040366688 0 0 -1
502 39 8 0.115 7.673166803658454 30.532342497944082 30.420674176471145 -1 0 1
2838 219 4 0.107 6.7382498020337565 22.749250072180317 27.2907396478525 0 -1 -1
894 69 10 0.115 4.481563732813214 31.283166063764753 27.260832308591343 1 1 0