LAMMPS data file via write_data, version 29 Aug 2024, timestep = 1000000, units = real

5120 atoms
10 atom types
4608 bonds
9 bond types
7680 angles
15 angle types
6144 dihedrals
12 dihedral types
2560 impropers
5 improper types

2.417973780134556 42.582026219843165 xlo xhi
2.417973780134556 42.582026219843165 ylo yhi
2.417973780134556 42.582026219843165 zlo zhi

Masses

1 12.011
2 12.011
3 15.999
4 12.011
5 1.008
6 1.008
7 1.008
8 1.008
9 1.008
10 1.008

Pair Coeffs # lj/charmmfsw/coul/long

1 0.078 3.65268 0.01 3.38542
2 0.09 3.56359 0.09 3.56359
3 0.05 3.02906 0.12 2.49452
4 0.078 3.65268 0.01 3.38542
5 0.024001 2.38761 0.024001 2.38761
6 0.024001 2.38761 0.024001 2.38761
7 0.024001 2.38761 0.024001 2.38761
8 0.024001 2.38761 0.024001 2.38761
9 0.024001 2.38761 0.024001 2.38761
10 0.024001 2.38761 0.024001 2.38761

Bond Coeffs # harmonic

1 330 1.5
2 700 1.23
3 330 1.5
4 322 1.111
5 322 1.111
6 322 1.111
7 322 1.111
8 322 1.111
9 322 1.111

Angle Coeffs # charmm

1 75 122.2 0 0
2 35 115.6 0 0
3 50 109.5 0 0
4 50 109.5 0 0
5 50 109.5 0 0
6 50 109.5 0 0
7 50 109.5 0 0
8 50 109.5 0 0
9 35.5 108.4 5.4 1.802
10 35.5 108.4 5.4 1.802
11 35.5 108.4 5.4 1.802
12 75 122.2 0 0
13 35.5 108.4 5.4 1.802
14 35.5 108.4 5.4 1.802
15 35.5 108.4 5.4 1.802

Dihedral Coeffs # charmmfsw

1 0 3 0 1
2 0.1 3 0 1
3 0 3 0 1
4 0.1 3 0 1
5 0.1 3 0 1
6 0 3 0 1
7 0 3 0 1
8 0.1 3 0 1
9 0 3 0 1
10 0 3 0 1
11 0.1 3 0 1
12 0.1 3 0 1

Improper Coeffs # harmonic

1 70 0
2 0 0
3 0 0
4 0 0
5 0 0

Atoms # full

3873 388 3 -0.489 9.048689054589726 3.0319093960938734 5.77273611506402 -2 -1 2
2499 250 9 0.09 5.790747660918779 3.4878385679065484 4.918624196418024 1 0 -1
2845 285 5 0.09 10.501403757455579 8.29068430150104 3.7728472530751387 -2 -2 0
4217 422 7 0.09 4.475173393487425 3.931691676518464 9.603329608972667 -1 -1 2
2670 267 10 0.09 2.982088008161611 2.514213764426032 3.0498441071031386 -3 -1 0
3561 357 1 -0.23 8.734313721720017 5.983790296536618 7.754278556756779 2 -1 3
3567 357 7 0.09 9.244211548830524 5.113095488302975 7.203007411302249 2 -1 3
2491 250 1 -0.23 5.528670927568564 6.90887690417118 4.909451151569577 1 0 -1
414 42 4 -0.23 3.1279022400297287 7.220743961663375 8.64056078791602 -3 -1 4
3878 388 8 0.09 9.373267083223631 4.372430903905298 3.6678105874909828 -2 -1 2
3874 388 4 -0.23 10.136956581924242 3.615485991475614 3.7853241830810807 -2 -1 2
419 42 9 0.09 3.8205094750771926 6.788835455923141 7.9100158594813434 -3 -1 4
775 78 5 0.09 8.975928635696002 3.479487364915838 9.942590036355448 2 2 1
418 42 8 0.09 2.957841666584648 6.4515438921114825 9.398899995438494 -3 -1 4
1115 112 5 0.09 11.396605363732546 3.3009881239186427 11.11872513632109 2 1 0
2498 250 8 0.09 6.971803931961362 4.538051078337809 4.158266622071245 1 0 -1
3880 388 10 0.09 11.09741374162421 4.145566418572999 3.8265294621220565 -2 -1 2
2493 250 3 -0.489 3.8724847155911917 5.200340311360403 4.735387642658816 1 0 -1
411 42 1 -0.23 2.7810151540755452 9.107533334802532 10.252312496586821 -3 -1 4
413 42 3 -0.489 4.861292997089868 8.854533057902453 9.110955423256865 -3 -1 4
4658 466 8 0.09 6.050074226406206 7.625043940439515 12.192207298702566 0 0 1
4212 422 2 0.409 2.4288420707492007 3.370597056602551 9.524057296429332 -1 -1 2
2496 250 6 0.09 5.44257265575151 7.159259243549325 5.953432308975572 1 0 -1
2497 250 7 0.09 4.818784365488023 7.478773137373126 4.260795198827246 1 0 -1
3563 357 3 -0.489 9.494418498779822 8.119283083284621 7.713708121155464 2 -1 3
2500 250 10 0.09 6.891258388824584 4.636863287277505 5.853435962894493 1 0 -1
1111 112 1 -0.23 11.865686361374244 2.4237881279248574 10.80017605831592 2 1 0
3562 357 2 0.409 9.733941431524658 6.994153036211626 8.044071130300717 2 -1 3
771 78 1 -0.23 8.378286580234885 2.7939885388797157 10.546109839614946 2 2 1
3565 357 5 0.09 7.910102135516002 6.403305729901167 7.107747379302543 2 -1 3
3566 357 6 0.09 8.25614682768741 5.640129788637997 8.69190095263098 2 -1 3
227 23 7 0.09 2.894827249395927 8.913972526938092 4.583189016462162 3 5 2
3568 357 8 0.09 11.052332403468426 5.49746669237428 8.685306226545965 2 -1 3
2492 250 2 0.409 5.111999957635398 5.489870496572162 4.833291779937101 1 0 -1
2494 250 4 -0.23 6.222078920592421 4.478195814542303 4.953281167228187 1 0 -1
3564 357 4 -0.23 11.052183942753912 6.6013806190465 8.632988347994807 2 -1 3
4211 422 1 -0.23 3.746051522728661 3.6736992394239425 8.83531108151139 -1 -1 2
412 42 2 0.409 3.697262591413766 8.41663069146577 9.353368539758915 -3 -1 4
2495 250 5 0.09 6.606277581296941 7.088305128851882 4.618653305738341 1 0 -1
3879 388 9 0.09 10.023679773908576 2.9646210002650513 2.9530727055674157 -2 -1 2
3569 357 9 0.09 11.220103793070095 6.913234930062128 9.647695042106713 2 -1 3
3872 388 2 0.409 9.936331855639432 2.8173716911885522 5.006797809631472 -2 -1 2
4657 466 7 0.09 7.056454656644925 8.141994069189153 10.08072815163409 0 0 1
4655 466 5 0.09 8.355430327176961 7.9222560175691195 11.324576170502597 0 0 1
2847 285 7 0.09 10.200221504101496 8.380297622292932 5.5452471895005555 -2 -2 0
4651 466 1 -0.23 7.79173255615409 8.66212109530304 10.76196494928445 0 0 1
2841 285 1 -0.23 9.824445371952647 8.611791825216454 4.558508020002181 -2 -2 0
2846 285 6 0.09 8.891629307679978 8.164670293636764 4.340019811988175 -2 -2 0
3850 385 10 0.09 11.003878558341585 5.530657479179263 12.051609559996423 -1 1 -1
3570 357 10 0.09 11.726395598520355 6.87459324393077 7.886064687455946 2 -1 3
777 78 7 0.09 7.88272085806046 3.367801534944822 11.284312490334923 2 2 1
4216 422 6 0.09 4.137832625525434 2.7260005818994246 8.407383207972014 -1 -1 2
1113 112 3 -0.489 11.58030263295761 3.2617839639397137 8.613253729645717 2 1 0
4215 422 5 0.09 3.5876749080187205 4.498040710833074 8.122095809049863 -1 -1 2
2669 267 9 0.09 4.758569920993228 2.7532890906231215 2.8473247630762324 -3 -1 0
3840 384 10 0.09 12.45215500295521 7.596379927227791 5.847079528704546 2 3 0
1112 112 2 0.409 12.092285901984894 2.4336920460391367 9.35077646634576 2 1 0
416 42 6 0.09 3.277299345584587 9.316456889011425 11.205579455011485 -3 -1 4
2850 285 10 0.09 11.034340231308736 11.816692674935963 4.533579773423046 -2 -2 0
319 32 9 0.09 6.721083852737771 13.540084391212991 9.319668540157583 -4 0 2
4652 466 2 0.409 7.107526837264641 9.476108466344574 11.810138576458149 0 0 1
4653 466 3 -0.489 7.104063984570949 10.686865677061794 11.775406648924289 0 0 1
318 32 8 0.09 8.405375652353758 13.870169878725177 9.975206976511355 -4 0 2
3379 338 9 0.09 4.543865804290263 14.290766353666013 12.040175032996126 3 -1 -2
2210 221 10 0.09 4.09008957942666 15.718271531768837 7.6323164666411625 3 2 0
2844 285 4 -0.23 11.07354810560595 10.718996529390882 4.754948184541535 -2 -2 0
2849 285 9 0.09 11.35113841217003 10.63221033671915 5.812991694631693 -2 -2 0
2848 285 8 0.09 11.984898275103632 10.418576988104201 4.1749437316425 -2 -2 0
4721 473 1 -0.23 5.034970313682948 12.761366427402884 6.097025521670844 4 -1 -1
320 32 10 0.09 7.058937812029196 13.325875728219728 11.059949661989037 -4 0 2
3631 364 1 -0.23 11.249169010527552 10.792925612932812 8.945296662660624 0 -2 1
3634 364 4 -0.23 10.55564941695956 12.052567284505306 11.064398120274815 0 -2 1
3374 338 4 -0.23 4.11371197869763 13.448587754275884 11.531582497849973 3 -1 -2
2842 285 2 0.409 9.76886087682163 10.082843258455576 4.433996230412044 -2 -2 0
4656 466 6 0.09 8.49272794389886 9.199027143630904 10.09994563476685 0 0 1
223 23 3 -0.489 2.4534015270556453 11.799523889965368 4.320791248953899 3 5 2
2208 221 8 0.09 3.2570307940884478 14.448423382083543 8.521001958165353 3 2 0
312 32 2 0.409 6.878720066555055 15.331200720430044 10.374565960733399 -4 0 2
4725 473 5 0.09 5.135346299331722 11.909970917833162 5.383754317632988 4 -1 -1
2204 221 4 -0.23 3.2908078012803794 15.476194908958556 8.309242224498274 3 2 0
2591 260 1 -0.23 9.245053500633155 14.895633724353145 6.4603289972959566 3 -1 5
890 89 10 0.09 11.164785331497336 15.72006844932357 11.318527823768934 1 0 3
3380 338 10 0.09 4.471071232241245 13.406019707882677 10.458614998318598 3 -1 -2
2597 260 7 0.09 9.570703066928326 14.37569128248018 7.419068535896167 3 -1 5
314 32 4 -0.23 7.329063718282122 13.921658904128838 10.140183022997597 -4 0 2
2843 285 3 -0.489 8.80038268733928 10.760313804986458 4.021447171972804 -2 -2 0
3638 364 8 0.09 9.675873065437926 11.354846721917063 11.179711723015199 0 -2 1
415 42 5 0.09 2.498467179549537 10.006360451334219 9.726963697932337 -3 -1 4
3639 364 9 0.09 10.298173095611324 13.088014894210884 11.39634049816014 0 -2 1
3378 338 8 0.09 4.351287683013785 12.50176106747625 11.996613263013412 3 -1 -2
2595 260 5 0.09 9.226228314881329 14.202124732038415 5.594229784277814 3 -1 5
4726 473 6 0.09 3.9914370896706193 12.999134759482004 6.210174905715906 4 -1 -1
2596 260 6 0.09 8.247006041238386 15.198718281738644 6.7462837026586335 3 -1 5
3640 364 10 0.09 11.416980986439922 11.790357000127552 11.72344564762597 0 -2 1
3637 364 7 0.09 10.180736616161717 10.429668795216138 8.812939460414004 0 -2 1
3632 364 2 0.409 11.096359688589816 12.138842904433641 9.667984480443035 0 -2 1
4730 473 10 0.09 6.520758323596998 14.702323458428639 3.6194176354220398 4 -1 -1
4727 473 7 0.09 5.4783433213588975 12.68024636922176 7.151066039002963 4 -1 -1
4724 473 4 -0.23 6.09449326491791 13.809251168063504 4.026593276822569 4 -1 -1
4722 473 2 0.409 5.7374132165531515 13.878188770174704 5.486307009519011 4 -1 -1
4723 473 3 -0.489 5.949002954981387 14.875615346207551 6.166652354677341 4 -1 -1
3635 364 5 0.09 11.845543046158435 10.054817364035156 9.3529112588221 0 -2 1
3636 364 6 0.09 11.649449369154171 11.11852301699647 7.9455019681809285 0 -2 1
3633 364 3 -0.489 11.40145446062108 13.242207021612572 9.17229068887196 0 -2 1
4728 473 8 0.09 5.130058876796525 13.612482694086099 3.5322855444610317 4 -1 -1
4729 473 9 0.09 6.79950858987601 12.92299738343927 3.880373708868076 4 -1 -1
3372 338 2 0.409 2.651957691896829 13.61472920049505 11.435052545849729 3 -1 -2
225 23 5 0.09 2.653111919348039 9.861594707956911 2.948162974608028 3 5 2
313 32 3 -0.489 6.514485633530507 15.763414097455005 11.468650737338766 -4 0 2
3844 385 4 -0.23 11.466468456704977 5.768924978614052 13.082981451142787 -1 1 -1
4654 466 4 -0.23 6.321749756848151 8.579856050813024 12.70943892112003 0 0 1
1942 195 2 0.409 5.6975900478423664 2.7376827381827296 14.60535239751858 -1 0 1
661 67 1 -0.23 7.776213166103586 5.807151312973821 21.414803324525188 -4 -1 1
3848 385 8 0.09 11.322763256924338 6.850507221863911 13.133848236637826 -1 1 -1
3419 342 9 0.09 11.637170036560967 5.251398403891066 21.254339757881674 0 -2 2
2891 290 1 -0.23 5.108230526705478 2.839954740145421 19.11281342324682 0 -2 0
3996 400 6 0.09 10.735237055280928 7.714335133283539 19.734567639254525 -3 1 0
1947 195 7 0.09 3.775675679719221 2.6503455388184007 13.965423047816968 -1 0 1
1864 187 4 -0.23 4.125890585793732 8.68275862949017 17.276988108066128 1 2 -2
2450 245 10 0.09 8.369896342931373 7.835519825537497 15.907721333208645 -2 1 0
666 67 6 0.09 8.080010727638367 6.7767477573646415 21.883201877702945 -4 -1 1
2444 245 4 -0.23 9.500796986080182 8.079617276949154 15.812714768241264 -2 1 0
2449 245 9 0.09 9.859630172307595 9.097202575501438 15.945044322745973 -2 1 0
667 67 7 0.09 7.2566359419640785 6.05586673617018 20.521180645256425 -4 -1 1
1862 187 2 0.409 5.589621244168253 8.88549048303235 16.987155758590237 1 2 -2
2442 245 2 0.409 10.339446788582425 7.053897239604905 16.5927366919642 -2 1 0
2462 247 2 0.409 2.44098174635188 7.276713933909335 13.68393437268253 -3 2 1
1868 187 8 0.09 4.114203079165434 7.844005356355652 18.066997457996116 1 2 -2
2896 290 6 0.09 5.928722876375933 3.608088163534578 19.433220920654765 0 -2 0
662 67 2 0.409 7.0853133859933966 5.102048377825586 22.43976152512355 -4 -1 1
1941 195 1 -0.23 4.65050725896632 3.281467926048647 13.794985745755072 -1 0 1
2463 247 3 -0.489 3.277893828769529 7.236030625162859 12.753626279368588 -3 2 1
2897 290 7 0.09 4.171801706143064 3.035459246738947 19.673749447769595 0 -2 0
2448 245 8 0.09 9.680303025875526 7.822343395696197 14.775875277807664 -2 1 0
1943 195 3 -0.489 6.844838157745768 3.204807716825857 14.716651740813075 -1 0 1
4659 466 9 0.09 5.3092649370809095 9.06623795510922 13.03252627147426 0 0 1
2447 245 7 0.09 8.951102600916801 7.4201575052672215 18.294582291504113 -2 1 0
669 67 9 0.09 5.069951052927108 5.592923469710284 21.99529174895776 -4 -1 1
3991 400 1 -0.23 11.54427770428231 8.50963444033417 19.74183101370012 -3 1 0
2895 290 5 0.09 4.906154684070382 2.8618165732474923 17.943096867030135 0 -2 0
1945 195 5 0.09 4.9086452085637955 3.0785231256106362 12.685419283480028 -1 0 1
1863 187 3 -0.489 6.4807254790674325 8.028851166345271 17.127127601939122 1 2 -2
1869 187 9 0.09 3.5642407503549967 8.428713552227583 16.331380759989443 1 2 -2
1946 195 6 0.09 4.5033817297681376 4.307129102833539 13.917399918191121 -1 0 1
698 70 8 0.09 5.591228750796672 8.804981088179439 20.206087198152815 0 -2 -1
2441 245 1 -0.23 9.471751191973645 6.601887067829076 17.765242777567288 -2 1 0
2446 245 6 0.09 8.651942664365428 5.9931537895750715 17.20763428529694 -2 1 0
2443 245 3 -0.489 11.542723706257213 6.803435496937291 16.480601841725296 -2 1 0
665 67 5 0.09 8.608026011210587 5.074669542687241 21.22780355717815 -4 -1 1
2445 245 5 0.09 10.046708515119303 5.910486859311557 18.432611859841206 -2 1 0
3849 385 9 0.09 10.85558748343891 5.248189075885625 13.91127763942386 -1 1 -1
699 70 9 0.09 7.159000090004559 8.280867979585253 20.653670052033178 0 -2 -1
4660 466 10 0.09 6.923568207371163 8.329172150427592 13.718371269842292 0 0 1
3993 400 3 -0.489 10.522576957796357 9.072631613768998 21.822739509643615 -3 1 0
3414 342 4 -0.23 12.35214131510893 5.677418534812842 21.96797610448532 0 -2 2
3418 342 8 0.09 12.16965191403816 6.733836993352827 22.115829818938675 0 -2 2
2468 247 8 0.09 2.5874593829489316 5.762483130435262 15.196556699845276 -3 2 1
825 83 5 0.09 6.038883796593595 12.11488131237494 20.459692799278837 1 0 -3
388 39 8 0.09 7.641199531799842 15.407024878597326 16.873507491724506 -2 -2 -3
695 70 5 0.09 7.23366708019269 11.59803016303965 21.97249478443843 0 -2 -1
3992 400 2 0.409 11.432505184603102 9.167557772431817 21.064966819083683 -3 1 0
3213 322 3 -0.489 12.456631106708294 15.289263074697233 14.574622355630048 -2 -3 -1
3219 322 9 0.09 10.143910805514677 15.60193198510252 16.324734757679586 -2 -3 -1
3995 400 5 0.09 11.388555199305621 9.28803428868946 18.96869013383245 -3 1 0
824 83 4 -0.23 3.2374689923815154 12.024566933307444 21.744392746497546 1 0 -3
826 83 6 0.09 5.319495969208106 13.485934437047543 21.39508810761067 1 0 -3
3375 338 5 0.09 2.911913444245004 14.519074521085159 13.394616007907242 3 -1 -2
1870 187 10 0.09 3.731195661760961 9.599836861259414 17.760644620502482 1 2 -2
827 83 7 0.09 5.186840157188251 13.554126771517662 19.52099213857277 1 0 -3
822 83 2 0.409 3.9345197731227843 12.230131696134999 20.477196613862972 1 0 -3
4303 431 3 -0.489 9.03259795111486 12.305177372228366 19.926520072207556 0 3 1
1865 187 5 0.09 5.0700775288289 10.604180290295721 15.826774780086756 1 2 -2
4304 431 4 -0.23 10.079243931319631 11.595344020869474 17.769303537092796 0 3 1
3220 322 10 0.09 9.779110825300059 15.174277352444701 14.674532293241178 -2 -3 -1
1916 192 6 0.09 11.10860139957216 11.607172040518758 14.313252389228873 -1 0 0
4305 431 5 0.09 11.266514095588425 13.773372345257286 18.25886481793498 0 3 1
387 39 7 0.09 5.974350663358251 14.529553260534954 14.104869711157747 -2 -2 -3
1867 187 7 0.09 6.453965567742111 10.817726405109823 17.07710300694714 1 2 -2
1861 187 1 -0.23 5.9425648996221785 10.174669161855443 16.392094919204325 1 2 -2
821 83 1 -0.23 5.222082302198707 12.897941654168132 20.468749134602916 1 0 -3
389 39 9 0.09 7.093391126319287 13.771788572727472 17.55287395218825 -2 -2 -3
700 70 10 0.09 7.003097360081882 9.932552725188366 20.098142473539443 0 -2 -1
692 70 2 0.409 6.169653213527781 9.730456464767386 21.982258288299615 0 -2 -1
383 39 3 -0.489 8.31376787718801 12.846800683965672 15.470144411181352 -2 -2 -3
385 39 5 0.09 7.222935997996252 13.492316486717403 13.293127053405366 -2 -2 -3
384 39 4 -0.23 7.033942182958553 14.454397898659648 16.616731340041554 -2 -2 -3
823 83 3 -0.489 3.490282445746084 11.799204614643543 19.436167538294335 1 0 -3
694 70 4 -0.23 6.49905789470746 9.179903704552952 20.64650762411118 0 -2 -1
1866 187 6 0.09 6.686318544436815 9.865085532312014 15.642706829525483 1 2 -2
390 39 10 0.09 6.0426603030318855 14.75901099104169 16.49580633352759 -2 -2 -3
829 83 9 0.09 3.678107543953055 11.133504130575687 22.28043499313228 1 0 -3
4302 431 2 0.409 9.919417924226007 12.431054620343033 19.043884324236462 0 3 1
381 39 1 -0.23 7.06462892036766 14.254091784824311 14.062077265305357 -2 -2 -3
1913 192 3 -0.489 11.814791189689197 9.122152619839717 13.759428150689129 -1 0 0
386 39 6 0.09 7.610782959125878 15.20967096175547 13.830546365691792 -2 -2 -3
4309 431 9 0.09 9.250394289023971 10.805088063813027 17.687660614232705 0 3 1
4635 464 5 0.09 2.6825151053845295 15.759463005876464 20.390619492461827 1 3 2
4307 431 7 0.09 10.796104149444867 14.198220942868804 19.955632100366525 0 3 1
382 39 2 0.409 7.536178248254845 13.769992207523096 15.41132755763254 -2 -2 -3
4306 431 6 0.09 11.872067055504544 12.676307724210702 19.644869249661223 0 3 1
4301 431 1 -0.23 11.048681344123045 13.351205474819567 19.287933480741675 0 3 1
4310 431 10 0.09 11.090769602382922 11.170749897452417 17.82779897955534 0 3 1
4308 431 8 0.09 10.019528570502237 12.220011100289385 16.92213077652215 0 3 1
1911 192 1 -0.23 12.132970000830166 11.388707375827263 14.439414308546372 -1 0 0
4935 494 5 0.09 9.207969060947168 15.785327649323087 18.76802999731079 0 4 -2
1915 192 5 0.09 12.258115801911782 11.308091152427362 15.563858314845493 -1 0 0
4937 494 7 0.09 9.271284941267865 15.587838990935067 20.51592576045625 0 4 -2
828 83 8 0.09 3.264703810360814 12.917323192422218 22.393495757846324 1 0 -3
696 70 6 0.09 8.21953303817666 10.26105382151636 22.348499333752383 0 -2 -1
4636 464 6 0.09 2.92903045691952 15.679356341925244 18.590855514628572 1 3 2
3417 342 7 0.09 10.315272097084142 4.965705901648423 24.58136748227143 0 -2 2
533 54 3 -0.489 7.855854316188547 7.7754937775879 26.78763414666338 -1 2 1
534 54 4 -0.23 9.910304740760791 8.814835861787785 26.5390093824853 -1 2 1
733 74 3 -0.489 11.156900941819929 2.996902518209105 29.210599827736125 1 2 3
670 67 10 0.09 5.856989622005859 6.787687879531971 23.019611244359655 -4 -1 1
1262 127 2 0.409 4.486288259348727 2.6462975083287708 31.34711547535749 2 2 -1
3577 358 7 0.09 9.824767752923284 5.461134736249004 30.140005880207347 1 0 -2
1263 127 3 -0.489 4.913987345927671 3.842145705934026 31.27007288515505 2 2 -1
663 67 3 -0.489 7.5398808299478715 4.142494939707923 23.039116236592776 -4 -1 1
2484 249 4 -0.23 5.791623532218134 4.592364643496431 27.240810019555738 0 2 -2
2488 249 8 0.09 4.809675207091186 4.9872037914813525 27.62292953547325 0 2 -2
3572 358 2 0.409 9.32382330649189 7.432295977069638 30.871156465517338 1 0 -2
3412 342 2 0.409 12.030404489780475 4.919775058044592 23.255948053634057 0 -2 2
2802 281 2 0.409 4.39664181556234 8.691637978992931 32.03353805303406 3 -1 3
2482 249 2 0.409 5.504140284616685 3.376071269491341 26.466318519772315 0 2 -2
3578 358 8 0.09 7.663578246981204 8.555148262597047 29.958565895989537 1 0 -2
2481 249 1 -0.23 6.651785005032776 2.526310792842788 26.27125709097414 0 2 -2
2489 249 9 0.09 6.355590473835372 5.27901144588623 26.676647886666032 0 2 -2
1445 145 5 0.09 4.634683604263964 8.887855337389134 25.230608323194193 2 -3 3
3579 358 9 0.09 7.1620198942608795 7.113596649999795 31.019529497528286 1 0 -2
3576 358 6 0.09 10.440446576848096 6.776356700104414 29.107925295491203 1 0 -2
2483 249 3 -0.489 4.3374534780259815 3.07742303816637 26.036225066397375 0 2 -2
1449 145 9 0.09 2.8318888081194133 7.845521808750216 24.083659772585467 2 -3 3
2490 249 10 0.09 6.380934114053197 4.2244391483923565 28.085842122055993 0 2 -2
1444 145 4 -0.23 2.461247865343551 7.270739664922634 25.02724518592775 2 -3 3
3573 358 3 -0.489 9.717694159692233 8.107925262975247 31.8332702530847 1 0 -2
3574 358 4 -0.23 7.91942209304114 7.520690477663687 30.299961603105594 1 0 -2
3416 342 6 0.09 11.745356988140243 5.788744045606965 25.2687705115355 0 -2 2
3580 358 10 0.09 7.921854974579122 6.721110182932621 29.506346488219915 1 0 -2
3571 358 1 -0.23 10.236203345492601 6.481312973049127 30.179147488358304 1 0 -2
2804 281 4 -0.23 3.74654891650785 7.374394828028491 31.85657100054394 3 -1 3
3411 342 1 -0.23 11.150283162866828 5.561008339041656 24.32379636686118 0 -2 2
539 54 9 0.09 10.230045079601368 7.819477270333128 26.689806527594136 -1 2 1
2810 281 10 0.09 4.335239707866177 6.515032761472508 31.450721982564364 3 -1 3
2808 281 8 0.09 2.9071850877277647 7.404515662401582 31.153714558291163 3 -1 3
3575 358 5 0.09 11.207839693241624 6.322247791627479 30.75387008540557 1 0 -2
3415 342 5 0.09 10.91054960835116 6.6003040558444015 23.97898661531726 0 -2 2
737 74 7 0.09 8.445800350620413 2.790477319622731 29.23122395742825 1 2 3
532 54 2 0.409 8.491351120855704 8.843977161312475 26.732500785220996 -1 2 1
740 74 10 0.09 11.248077436246302 2.7137232875069848 26.676918694960843 1 2 3
1448 145 8 0.09 2.665205745082856 6.138223632270217 24.950706726212804 2 -3 3
668 67 8 0.09 5.513476681327571 5.171857635871405 23.710341692188226 -4 -1 1
3413 342 3 -0.489 12.417961955590481 3.7464712241336766 23.421401136025374 0 -2 2
1442 145 2 0.409 3.1327176006627653 7.956586292388824 26.19377639107067 2 -3 3
1447 145 7 0.09 5.045921843672469 8.650393603488364 26.959806895473218 2 -3 3
483 49 3 -0.489 2.606595423398868 4.1537148153392796 22.836010532748666 -1 1 1
2486 249 6 0.09 7.619534770340565 3.000660336644675 26.4919820941533 0 2 -2
1446 145 6 0.09 5.218528965121578 7.295328633571917 25.89350787819392 2 -3 3
1441 145 1 -0.23 4.585902902681355 8.194742845451994 26.090126044403917 2 -3 3
664 67 4 -0.23 5.756510747221762 5.733496698683414 22.79014347496234 -4 -1 1
3477 348 7 0.09 2.491474427038662 4.680598178178762 29.15956095728297 4 0 -1
3740 374 10 0.09 4.154007094830588 15.557958478221105 28.523480753081337 -1 0 2
3166 317 6 0.09 7.94086637420766 13.105957772175646 25.75059984869092 0 1 1
693 70 3 -0.489 5.147669336076677 9.395431999503696 22.578078959035047 0 -2 -1
3207 321 7 0.09 3.1758752758832833 11.899555411148036 31.91475408204352 3 1 0
2859 286 9 0.09 10.582731558608454 12.639653496018859 32.3112385128521 0 -1 -1
509 51 9 0.09 8.180114131752237 14.72864932385566 29.09890150799713 1 2 0
2803 281 3 -0.489 5.1289497085498255 9.288709552152813 31.2098964618483 3 -1 3
587 59 7 0.09 12.208074769296987 14.84029159319728 32.50582812167873 0 -1 1
36 4 6 0.09 11.361726497048945 11.099274901983108 29.189077057788055 -1 1 1
4838 484 8 0.09 10.293232134290314 11.992010375768475 22.54543991571608 -2 1 4
35 4 5 0.09 12.325145207166731 9.723527565143678 29.889318537370254 -1 1 1
1159 116 9 0.09 8.207074107925088 15.64111137616325 31.411895942934198 -2 2 2
697 70 7 0.09 6.907703679199913 10.973821550421315 23.580217224362194 0 -2 -1
3168 317 8 0.09 8.230096008515567 15.126405928011259 23.8706754747612 0 1 1
3162 317 2 0.409 6.40798967966812 14.136274519089994 24.76743245676039 0 1 1
3204 321 4 -0.23 5.540812962241141 12.327619162985245 30.328555564378576 3 1 0
538 54 8 0.09 10.19941267062476 9.19860245263974 25.51680584014829 -1 2 1
3205 321 5 0.09 2.641982565488112 12.668264215859235 30.395681142919596 3 1 0
505 51 5 0.09 11.782868618630733 13.021231281158652 27.60574954239432 1 2 0
503 51 3 -0.489 9.909242973669524 13.02640033843047 29.236297423315026 1 2 0
501 51 1 -0.23 11.165373647186469 13.934511212283663 27.445576271155183 1 2 0
540 54 10 0.09 10.376220613522467 9.49283893744309 27.242599177782676 -1 2 1
3206 321 6 0.09 2.610409956294562 13.660940555636857 31.80140248680656 3 1 0
3203 321 3 -0.489 4.993467893179933 14.378313079600902 31.300450310454483 3 1 0
3165 317 5 0.09 7.440164410511005 14.68818184717788 26.51156201653413 0 1 1
507 51 7 0.09 10.74152788509256 13.832033386967371 26.439476730882802 1 2 0
4839 484 9 0.09 9.480864998629816 12.926104546127453 23.965483274024074 -2 1 4
502 51 2 0.409 10.027867559451188 13.972001447990815 28.455433682324582 1 2 0
535 54 5 0.09 8.54263434720447 10.902118851014169 26.815048921559853 -1 2 1
531 54 1 -0.23 7.760097738451967 10.12256503921271 26.880325219548688 -1 2 1
536 54 6 0.09 7.248967783872466 10.165490979644837 27.851737248955423 -1 2 1
581 59 1 -0.23 11.407316720104166 15.5538902943693 32.05456768440153 0 -1 1
747 75 7 0.09 3.4967215890107943 11.321592362045955 27.39139164462248 3 1 -2
3201 321 1 -0.23 3.188961956987549 12.889298785087036 31.286898693337335 3 1 0
4840 484 10 0.09 10.876591266239712 12.075743208277794 24.402591537118738 -2 1 4
4833 484 3 -0.489 10.616906180050366 14.85304032635707 23.08269213129851 -2 1 4
3208 321 8 0.09 6.117500801180894 12.87028608696303 29.501350910085215 3 1 0
2856 286 6 0.09 8.056665055289733 11.123314659082807 31.853764778168404 0 -1 -1
537 54 7 0.09 7.030247443611784 10.2206068010657 26.070130023680424 -1 2 1
4834 484 4 -0.23 10.406207358903497 12.582041015920943 23.558457914589628 -2 1 4
3167 317 7 0.09 6.343175314410887 13.3157385657725 26.77263663034788 0 1 1
3161 317 1 -0.23 7.0824708095324 13.775370891428322 26.083039760935527 0 1 1
4832 484 2 0.409 11.193403658501627 13.770731673983423 23.28349406154793 -2 1 4
3210 321 10 0.09 6.2658474738801235 12.111562945904222 31.21260626987305 3 1 0
504 51 4 -0.23 9.066727824573611 15.130270913421466 28.586253671157596 1 2 0
749 75 9 0.09 3.0742914647974486 13.49403752595992 25.359061153603324 3 1 -2
3164 317 4 -0.23 7.09202064114314 15.214082397104304 23.90610728024171 0 1 1
506 51 6 0.09 11.826591752409602 14.864741749090362 27.463967531276253 1 2 0
3209 321 9 0.09 5.036890829460206 11.361331025608695 29.992691153492288 3 1 0
3163 317 3 -0.489 5.409843231153088 13.576400842378737 24.35947025040197 0 1 1
3202 321 2 0.409 4.5548012201760475 13.283442158411317 30.938785556194198 3 1 0
585 59 5 0.09 10.72078152751836 14.881912678362072 31.483645768722187 0 -1 1
3170 317 10 0.09 6.586399562343331 15.117091251730344 22.911462923582356 0 1 1
510 51 10 0.09 8.821660930770705 15.646729716137001 27.623266019385177 1 2 0
31 4 1 -0.23 12.320385787818237 10.625955089605187 29.236026793688218 -1 1 1
691 70 1 -0.23 7.227868199843726 10.629551950798408 22.53817192132393 0 -2 -1
2981 299 1 -0.23 11.158189210981137 2.6387369661340836 35.15122951432265 2 2 2
2986 299 6 0.09 10.649263240087327 3.522041470047132 34.83215475849745 2 2 2
1464 147 4 -0.23 6.740497648476309 6.176261121818545 33.98123741718033 1 -1 -2
1462 147 2 0.409 7.557360580673602 5.0713700995637 34.527935222514856 1 -1 -2
1463 147 3 -0.489 8.533199990436415 5.286973533830164 35.23477700765798 1 -1 -2
1468 147 8 0.09 5.604778657488444 5.9779807436300825 34.315015704741015 1 -1 -2
1469 147 9 0.09 6.772563851404699 6.222355898850386 32.866117164181354 1 -1 -2
2072 208 2 0.409 4.257570483756016 8.214282229298089 37.19912344293415 -1 5 -3
1467 147 7 0.09 6.756557017867828 3.3682364853490525 35.35531535560594 1 -1 -2
1090 109 10 0.09 9.539676899454012 4.65994400384883 37.46262860189589 0 0 -4
1470 147 10 0.09 7.1096111283044285 7.144078220842576 34.428637199141434 1 -1 -2
1089 109 9 0.09 10.722980265620032 3.6692427396112173 38.4066754773159 0 0 -4
2817 282 7 0.09 9.835919704587004 7.6566012737567535 37.21715072772432 -2 -1 -1
1461 147 1 -0.23 7.168565447658882 3.6631300278316545 34.35709931707885 1 -1 -2
1466 147 6 0.09 6.427494288222098 3.6101128670366567 33.58678969499171 1 -1 -2
1465 147 5 0.09 8.117487782413592 3.103587825719041 34.166281179667216 1 -1 -2
2980 298 10 0.09 3.5952215632635145 4.400509738316482 39.37553223537921 -1 -1 4
1084 109 4 -0.23 9.63092429527445 3.7541574930802155 38.15314814411239 0 0 -4
2700 270 10 0.09 3.6213574557766437 8.389925839445045 41.385951848678786 6 5 -1
1086 109 6 0.09 6.868086720455938 4.431155090624145 40.18762711027297 0 0 -4
1085 109 5 0.09 7.791992853503591 5.857167087607458 39.54938155118013 0 0 -4
2811 282 1 -0.23 10.1264882168873 8.703279926124548 37.39191830569915 -2 -1 -1
2075 208 5 0.09 5.724784557710551 6.956537426906952 38.22612283174759 -1 5 -3
1082 109 2 0.409 8.7583242515982 3.8867841665408127 39.38863599699468 0 0 -4
1081 109 1 -0.23 7.538239415488054 4.720795821428062 39.421111350379846 0 0 -4
2077 208 7 0.09 4.015486665549847 6.333823495358214 38.01208736112285 -1 5 -3
2071 208 1 -0.23 4.844074089521605 6.916102262645321 37.58382201667132 -1 5 -3
2076 208 6 0.09 5.06465645056848 6.420989811137456 36.5852704521991 -1 5 -3
2974 298 4 -0.23 3.165512513469329 3.6467102294479403 38.684648385096594 -1 -1 4
1083 109 3 -0.489 9.031687509027108 3.211137311621389 40.38000907790892 0 0 -4
2987 299 7 0.09 11.55849831683314 2.7620173605656304 36.17761175005285 2 2 2
1088 109 8 0.09 9.249505598190527 2.8492700443755874 37.58954331491168 0 0 -4
2806 281 6 0.09 4.514075877134353 8.843610241834991 34.23187028956967 3 -1 3
2978 298 8 0.09 3.382352305068217 4.009145170636197 37.69684307779275 -1 -1 4
2813 282 3 -0.489 8.101839918906752 8.857735668448798 38.57781826327063 -2 -1 -1
2982 299 2 0.409 12.321558395565487 2.4846772338175582 34.25873332843474 2 2 2
2694 270 4 -0.23 2.8142021649219022 7.668113221115821 41.259544408333966 6 5 -1
350 35 10 0.09 11.023692072173771 7.049338730928646 34.214451382137355 1 4 -2
2990 299 10 0.09 12.063611613270515 3.912606670736512 32.77682255781535 2 2 2
344 35 4 -0.23 11.869630313728777 6.350869890092975 34.379807587797586 1 4 -2
2073 208 3 -0.489 3.336942953247439 8.171969394306064 36.40774035163378 -1 5 -3
2979 298 9 0.09 3.537938268941581 2.5951182217957367 38.85254268771918 -1 -1 4
1087 109 7 0.09 7.0863924206782745 4.768830376508049 38.38292580243511 0 0 -4
2984 299 4 -0.23 12.124052627917049 2.808994368068137 32.86443641651084 2 2 2
2815 282 5 0.09 10.7907133749542 8.958299620380949 38.22255959690237 -2 -1 -1
4963 497 3 -0.489 11.311289396182993 8.236183689195856 40.86028885465194 1 0 -4
2809 281 9 0.09 3.4078111934617583 6.992288082462239 32.78846668359792 3 -1 3