LAMMPS data file via write_data, version 29 Sep 2021, timestep = 1000000

5832 atoms
8 atom types
5103 bonds
7 bond types
7290 angles
10 angle types
5832 dihedrals
8 dihedral types
2187 impropers
3 improper types

-0.35370895351866505 41.35370895349076 xlo xhi
-0.35370895351866505 41.35370895349076 ylo yhi
-0.35370895351866505 41.35370895349076 zlo zhi

Masses

1 12.011
2 12.011
3 15.999
4 15.999
5 1.008
6 1.008
7 1.008
8 1.008

Pair Coeffs # lj/charmmfsw/coul/long

1 0.078 3.65268 0.01 3.38542
2 0.098 3.02906 0.098 3.02906
3 0.12 3.02906 0.12 2.49452
4 0.192101 3.14487 0.192101 3.14487
5 0.024001 2.38761 0.024001 2.38761
6 0.024001 2.38761 0.024001 2.38761
7 0.024001 2.38761 0.024001 2.38761
8 0.045999 0.400014 0.045999 0.400014

Bond Coeffs # harmonic/omp

1 200 1.522
2 750 1.22
3 230 1.4
4 322 1.111
5 322 1.111
6 322 1.111
7 545 0.96

Angle Coeffs # charmm/omp

1 70 125 20 2.442
2 55 110.5 0 0
3 33 109.5 30 2.163
4 33 109.5 30 2.163
5 33 109.5 30 2.163
6 55 115 0 0
7 35.5 108.4 5.4 1.802
8 35.5 108.4 5.4 1.802
9 50 123 210 2.262
10 35.5 108.4 5.4 1.802

Dihedral Coeffs # charmmfsw

1 0 6 180 1
2 2.05 2 180 1
3 2.05 2 180 1
4 0 6 180 1
5 0 6 180 1
6 0 6 180 1
7 0 6 180 1
8 0 6 180 1

Improper Coeffs # harmonic/omp

1 65 0
2 0 0
3 0 0

Atoms # full

5074 635 2 0.751 8.015466120894441 8.45410534343306 2.779872506207645 3 0 1
1045 131 5 0.09 3.5662731286397737 5.540925898298017 4.070127117175448 1 1 0
3539 443 3 -0.561 4.201111638728892 8.678625010679163 3.453511752181978 -1 0 1
5076 635 4 -0.595 8.898383586194164 7.5860383493876835 3.2488005070450967 3 0 1
3269 409 5 0.09 8.019755665611335 4.480062758896953 2.2723653628375584 2 0 0
2873 360 1 -0.295 1.4764874514965993 0.5883615669849617 0.5163546682765032 -1 1 2
3270 409 6 0.09 8.146908722461468 4.972831152106166 3.9727052562971337 2 0 0
1144 143 8 0.43 7.9070536771961395 0.6714559366501913 0.4566276079874721 1 0 1
3272 409 8 0.43 9.646854072195541 1.5027529666734984 2.8401605765858116 2 0 0
3951 494 7 0.09 1.3413164811579077 2.0980031167917925 4.341127195602793 2 -1 3
4302 538 6 0.09 -0.28837406796704484 9.598798660831285 1.766273910583034 2 1 1
3271 409 7 0.09 6.72426470385384 4.0266744311918 3.4548451607616575 2 0 0
5079 635 7 0.09 6.27931095844204 8.415137066299213 1.6392426220841356 3 0 1
3538 443 2 0.751 3.624321586216132 9.715900146901308 3.658152361403425 -1 0 1
210 27 2 0.751 2.3530615725287154 6.802849124705455 1.132513138705812 2 0 2
3266 409 2 0.751 8.42607671468765 2.8119530385604055 3.6647074707549225 2 0 0
3265 409 1 -0.295 7.839587490579318 4.140991931231616 3.2212087218121845 2 0 0
213 27 5 0.09 2.2667250172301046 4.748891315510667 0.6450029030951591 2 0 2
5077 635 5 0.09 6.528646277285752 6.86537361276208 2.584743845238713 3 0 1
212 27 4 -0.595 3.6076372988890824 6.687399290739717 1.724068230692803 2 0 2
3268 409 4 -0.595 9.210424816041119 2.3467213410875343 2.6197768472186196 2 0 0
1047 131 7 0.09 5.281830046995867 6.139331660370525 4.5822693689693725 1 1 0
211 27 3 -0.561 1.711793425581992 7.7741327587584115 1.3666145455250398 2 0 2
3945 494 1 -0.295 2.3292454192302507 2.0688608684553613 4.819525876919763 2 -1 3
3952 494 8 0.43 4.9561390963517855 1.1977955660528539 3.2089825677794463 2 -1 3
3946 494 2 0.751 3.337985337488019 1.2701931542536513 4.006957422602576 2 -1 3
209 27 1 -0.295 1.9153706511889292 5.681585917991872 0.19968832248467308 2 0 2
3947 494 3 -0.561 3.050292155038129 0.1870863955195149 3.5331721261094433 2 -1 3
216 27 8 0.43 3.6975135452874337 7.449247108094116 2.3860453306590252 2 0 2
5078 635 6 0.09 7.527478801705234 7.209400058910409 1.126328377465911 3 0 1
5080 635 8 0.43 9.501204758119236 8.057128138933656 3.783642117001156 3 0 1
2878 360 6 0.09 2.0537345752887814 -0.2674526234548452 1.072500123809396 -1 1 2
5075 635 3 -0.561 7.921432068374361 9.655194446145867 3.0301134961797525 3 0 1
3540 443 4 -0.595 2.7756812615012754 9.766005141061068 4.711226671496978 -1 0 1
5073 635 1 -0.295 7.009859909134767 7.705218142234602 2.034291813480873 3 0 1
2939 368 3 -0.561 0.7531878064041553 5.300475719005562 3.744897878320739 -2 -1 2
2876 360 4 -0.595 -0.15609456458395934 -0.10802805442594227 2.045033850477747 -1 1 2
3267 409 3 -0.561 8.136173997047607 2.228139141025444 4.658561720030359 2 0 0
2051 257 3 -0.561 6.377937430670879 -0.19779437454047802 2.9833832863250116 1 2 0
2938 368 2 0.751 -0.20898677354150608 5.967359912238514 4.036318076344138 -2 -1 2
215 27 7 0.09 0.8588324152654099 5.645678431731583 0.10184113332649654 2 0 2
3701 463 5 0.09 4.420339241746217 3.9473682315710006 0.4637590221580951 2 1 0
2874 360 2 0.751 0.1411504150979947 0.8050652032690073 1.0907725733364304 -1 1 2
3948 494 4 -0.595 4.456429469537785 1.927004562018443 3.53868936191753 2 -1 3
3699 463 3 -0.561 6.62269462336697 2.175183580656829 0.6065872045873602 2 1 0
1140 143 4 -0.595 7.9551768206995925 -0.18557379873135726 0.014360259675820702 1 0 1
3698 463 2 0.751 5.5933829181699535 2.067987132670669 0.018081550062900617 2 1 0
4303 538 7 0.09 -0.19070559921064037 8.899419744580339 3.33482629438667 2 1 1
2879 360 7 0.09 2.17177274693082 1.4277217487577871 0.5738878572334047 -1 1 2
3704 463 8 0.43 5.692452576914095 0.23790768098815906 -0.17869089966184185 2 1 0
1138 143 2 0.751 9.31800864440244 -0.35226031923419043 -0.3451878614890802 1 0 1
5584 698 8 0.43 4.993631635422619 2.6824636506427573 9.187310536444992 1 1 2
1048 131 8 0.43 5.194757955140712 6.192615683487752 7.205133471002348 1 1 0
4340 543 4 -0.595 7.051027509929276 6.337595872985458 6.749681173367681 2 0 1
4339 543 3 -0.561 8.821508631996203 7.041313810171693 7.942444889388015 2 0 1
4028 504 4 -0.595 10.026548688578828 9.8698392093503 7.696824908530719 -1 0 1
4026 504 2 0.751 9.821130093222369 10.042965105708515 6.296518665722798 -1 0 1
4344 543 8 0.43 6.9069781192272925 7.2558940022286595 6.695308282851083 2 0 1
4631 579 7 0.09 6.088866164321204 7.779830613754634 9.040504180990295 1 -1 1
587 74 3 -0.561 3.924944398792829 4.092707454846051 9.175362118128778 1 2 1
5578 698 2 0.751 5.261008646283577 1.2154250107717965 8.155590076886762 1 1 2
1044 131 4 -0.595 4.324081511709903 6.615666056680707 7.156882867415151 1 1 0
5579 698 3 -0.561 4.104299679113228 0.9321503375483502 8.133597845003653 1 1 2
4337 543 1 -0.295 8.829824266730807 4.734073990193295 7.314090630664365 2 0 1
585 74 1 -0.295 1.9917946990270483 5.421102407792349 9.57793026935046 1 2 1
1046 131 6 0.09 4.543268750003935 4.594711349788598 5.249098080858803 1 1 0
5328 666 8 0.43 1.5521111766394469 1.6400094249758317 8.208135745183453 1 -2 0
5580 698 4 -0.595 5.765109352926527 2.208547115238669 8.826920250548946 1 1 2
1042 131 2 0.751 3.697245989985034 6.532827521051552 5.919290726244155 1 1 0
589 74 5 0.09 1.6373638202931267 6.175110324181424 8.880517122450795 1 2 1
4032 504 8 0.43 9.837623718046228 8.92423317386945 7.892066659784001 -1 0 1
586 74 2 0.751 2.802372445453609 4.3929164539459835 8.845336581734013 1 2 1
588 74 4 -0.595 2.1316098503660768 3.850466090884958 7.796622266987101 1 2 1
2339 293 3 -0.561 6.431721258661314 8.85438144861148 6.316357021101083 -2 2 -2
4343 543 7 0.09 8.01297605554096 4.0483852424439855 7.067313337514027 2 0 1
4027 504 3 -0.561 9.574394262106019 9.115698406101785 5.6023429719447195 -1 0 1
2338 293 2 0.751 5.881683061395704 9.93842060939782 6.0777747226944 -2 2 -2
4341 543 5 0.09 9.126803179624428 4.50996816702122 8.384623351765983 2 0 1
5577 698 1 -0.295 6.4312894098053555 0.48589802849612485 7.525876966695506 1 1 2
3544 443 8 0.43 2.69439913000887 8.912117016167336 5.149050509227603 -1 0 1
592 74 8 0.43 1.271216476451633 4.28208667925242 7.575565604200105 1 2 1
4342 543 6 0.09 9.685353849014014 4.4188005923928575 6.635931037826897 2 0 1
4338 543 2 0.751 8.305689178887242 6.149748527268519 7.313212935976097 2 0 1
1041 131 1 -0.295 4.292631511010964 5.621382920484404 4.906076788650309 1 1 0
5582 698 6 0.09 6.031558886827135 -0.0707519573121988 6.673871679672543 1 1 2
5322 666 2 0.751 0.5756756469354214 1.1420745929712253 9.733427185462023 1 -2 0
1043 131 3 -0.561 2.7448835288139777 7.258191795926149 5.66885130585162 1 1 0
4629 579 5 0.09 4.663959553375753 7.080355255049803 9.897789985671395 1 -1 1
5581 698 5 0.09 7.168232459442395 1.2197740788962586 7.202991560242344 1 1 2
1507 189 3 -0.561 -0.2710280867906848 4.801037765641681 7.5196681242607575 1 0 3
5324 666 4 -0.595 0.8351982507726543 1.1189229736099695 8.405136595630493 1 -2 0
3950 494 6 0.09 2.2491978467043015 1.8312410279040883 5.903741223639662 2 -1 3
2944 368 8 0.43 0.7129498415838922 6.877824649549475 5.386972125277336 -2 -1 2
591 74 7 0.09 1.150870701122798 4.883598883858963 10.022337759452853 1 2 1
2341 293 5 0.09 4.4260820806576735 9.763861922426475 7.59477870549026 -2 2 -2
2968 371 8 0.43 3.7152801477743784 -0.29650864856549436 9.676573595383985 1 0 -1
5583 698 7 0.09 6.9542437123836045 -0.07835537373342161 8.334515979228936 1 1 2
2940 368 4 -0.595 -0.17765647164975334 6.958102878179367 5.032693900502973 -2 -1 2
3949 494 5 0.09 2.692919213546985 3.0922624422968754 4.943070461988153 2 -1 3
4330 542 2 0.751 8.5678391978403 2.528657942623489 12.2512201653155 -1 1 -1
4628 579 4 -0.595 6.289468250984702 9.781727171751829 10.35720704062957 1 -1 1
4627 579 3 -0.561 4.480622320743479 9.155744085532032 11.532919078686696 1 -1 1
5184 648 8 0.43 3.066391836579488 1.7748208467906834 11.724882081165598 1 2 0
2591 324 7 0.09 1.8408426712613113 9.567298698470058 11.788764150872984 0 0 1
5214 652 6 0.09 5.604737805630927 0.4876814500644452 13.952695869724492 0 -1 0
4334 542 6 0.09 8.369226087095178 1.7771899338287613 10.231693624021927 -1 1 -1
4630 579 6 0.09 6.340006190955168 7.098659004024348 10.758873242349285 1 -1 1
4626 579 2 0.751 5.256367499129314 8.951117018988871 10.6430931689713 1 -1 1
3990 499 6 0.09 1.4996586274659225 7.409774323392388 14.008589143006715 1 0 0
901 113 5 0.09 0.9790384097126579 0.5461316086451846 13.605467597243338 -1 0 0
1314 165 2 0.751 7.63700263086247 6.903539428222871 13.896260991014634 0 0 -2
2587 324 3 -0.561 0.5426642644867286 9.812329987101595 13.956876202673342 0 0 1
1320 165 8 0.43 7.805254559579271 4.941468148439011 13.928455618966842 0 0 -2
5180 648 4 -0.595 3.884660467671498 2.09442237561525 12.105991805713096 1 2 0
5181 648 5 0.09 5.175742430730806 2.916942952929473 14.066958574230512 1 2 0
5179 648 3 -0.561 2.3063180997961727 3.263178345542536 13.172108933426092 1 2 0
5178 648 2 0.751 3.4957578205832207 3.007009931156758 12.945096596644122 1 2 0
5183 648 7 0.09 5.327999773914933 4.12973767509976 12.700539792688279 1 2 0
5224 653 8 0.43 0.35145073824354744 3.369641621211902 12.155737481988428 0 1 0
1567 196 7 0.09 10.051250605715463 8.602877385164188 12.545969801248296 1 1 0
4331 542 3 -0.561 8.393246428006211 3.4645140685046383 13.027060182171933 -1 1 -1
5182 648 6 0.09 4.381934094023388 4.466873563188921 14.193273692852495 1 2 0
2585 324 1 -0.295 0.7271626505906867 9.533877117109633 11.597276165156476 0 0 1
1315 165 3 -0.561 8.632286971162554 6.999594418547583 13.216040170741127 0 0 -2
4335 542 7 0.09 7.5824430107961795 3.304764378523759 10.47198821957861 -1 1 -1
5177 648 1 -0.295 4.676208742833152 3.6807924311135567 13.505892985113183 1 2 0
5323 666 3 -0.561 1.2429950106606769 1.8902218123758825 10.4652736782148 1 -2 0
1316 165 4 -0.595 7.20787767660891 5.689838563285043 14.30463728938749 0 0 -2
2590 324 6 0.09 0.4315072217789079 8.711785663656055 10.990195560607916 0 0 1
4332 542 4 -0.595 9.455287897725281 1.5088183457828699 12.561457152823351 -1 1 -1
1313 165 1 -0.295 6.879681618389644 7.960446111834108 14.624491428437725 0 0 -2
4333 542 5 0.09 6.833486628071234 1.8372991024289402 11.212100270930627 -1 1 -1
4329 542 1 -0.295 7.801516086824733 2.367359822919703 10.96660135035242 -1 1 -1
5213 652 5 0.09 7.455976615020247 0.4934922248986501 13.892222119015312 0 -1 0
3989 499 5 0.09 0.4175593891781756 5.858923413540909 13.701530125029192 1 0 0
1318 165 6 0.09 5.822845085767272 7.81076044131962 14.426620328888982 0 0 -2
3985 499 1 -0.295 0.6282960965940414 6.767738679217314 14.337437291078974 1 0 0
1319 165 7 0.09 7.109227342497926 8.974672147341415 14.21474173559103 0 0 -2
5209 652 1 -0.295 6.531267158214697 -0.15944608269762775 14.00782466615357 0 -1 0
3991 499 7 0.09 -0.3006383087402439 7.423642323713969 14.42646251869912 1 0 0
900 113 4 -0.595 3.3064886277267687 -0.2755331907624431 14.849183534493237 -1 0 0
590 74 6 0.09 2.6130208248526503 5.925579827729608 10.377472382008076 1 2 1
2586 324 2 0.751 0.02901785383121558 9.575558969430055 12.895145419725353 0 0 1
4336 542 8 0.43 9.667791342516061 1.4486314979740738 13.492225495363748 -1 1 -1
5220 653 4 -0.595 -0.32701681090891044 4.060752611741816 12.111611484780882 0 1 0
4625 579 1 -0.295 5.642686160453839 7.61089506592271 10.086454814358474 1 -1 1
492 62 4 -0.595 4.156420923384622 4.4692514555422775 19.035794188720093 0 2 1
2853 357 5 0.09 7.722394256075849 6.846857921136999 17.981312277988728 -1 -1 0
2849 357 1 -0.295 7.162257636851502 5.913241370121707 18.055537743257574 -1 -1 0
4397 550 5 0.09 0.5782969407893431 1.3935280160639558 19.202017941322143 0 1 -1
4394 550 2 0.751 0.4742839264131019 3.445549979429802 19.35431652926633 0 1 -1
4393 550 1 -0.295 -0.08051935646248509 2.082437728575131 19.58878920321208 0 1 -1
3194 400 2 0.751 1.834026584991908 7.591804629491274 19.831839140002135 1 0 0
2851 357 3 -0.561 7.557999513263181 3.838162631348962 19.28827141540575 -1 -1 0
489 62 1 -0.295 3.717881539994907 3.1401925670043016 17.14804416416621 0 2 1
495 62 7 0.09 3.525934438532846 4.151740394149298 16.749732802910362 0 2 1
2751 344 7 0.09 2.327464083099362 0.03186706402220796 19.325030881140144 -1 1 0
3986 499 2 0.751 0.9827087188073076 6.222719568627896 15.74377232524125 1 0 0
3195 400 3 -0.561 1.284294756867648 6.469659367046905 19.798026552202057 1 0 0
2850 357 2 0.751 7.59361215164051 5.072056520360062 19.232167227410685 -1 -1 0
4395 550 3 -0.561 0.2295342501827089 4.183949250231654 18.435358327592272 0 1 -1
3987 499 3 -0.561 1.8231586180511 6.578893217985269 16.559816629007003 1 0 0
3196 400 4 -0.595 2.411985801233024 8.217005612419904 18.748444807389262 1 0 0
2854 357 6 0.09 6.054803423402494 6.053243301406761 18.11974902469895 -1 -1 0
490 62 2 0.751 3.9248217745589624 3.233745542611892 18.578623008455644 0 2 1
494 62 6 0.09 4.688419371755536 2.746122471603039 16.68431765008047 0 2 1
2855 357 7 0.09 7.34419959438304 5.429074252811274 17.06421266704028 -1 -1 0
3385 424 1 -0.295 8.027065002702557 -0.14505520101799987 19.61617798566146 0 1 2
493 62 5 0.09 2.74243366204312 2.542857496828526 16.860387599002756 0 2 1
189 24 5 0.09 8.895561380763212 3.6524984107809724 16.807058132361327 0 -1 0
3988 499 4 -0.595 0.07704473869738065 5.257422645291774 16.068607240849126 1 0 0
3992 499 8 0.43 0.2909703961248641 4.874849932927833 16.982451670817902 1 0 0
2852 357 4 -0.595 8.225499932600052 5.7425050962444 20.24706957047535 -1 -1 0
191 24 7 0.09 8.112177278578688 2.663705110290788 15.56504870861893 0 -1 0
491 62 3 -0.561 3.7903510687678237 2.285359379007178 19.363217132973368 0 2 1
3390 424 6 0.09 7.91619913722121 0.8271339300006164 19.07698926392528 0 1 2
3200 400 8 0.43 2.2418815461998918 7.660982928584516 18.006885630335866 1 0 0
185 24 1 -0.295 8.697880401016697 2.606229619823142 16.51555684821113 0 -1 0
190 24 6 0.09 8.104629500363423 2.1513351329310257 17.35375225834395 0 -1 0
4400 550 8 0.43 1.2791226503000086 4.867796632669028 20.272553508446958 0 1 -1
496 62 8 0.43 4.394096577427742 4.44029582103657 19.976938219074334 0 2 1
78 10 6 0.09 6.920624308261461 10.008160503483829 19.097868704971756 1 -2 -1
1317 165 5 0.09 7.020725566755322 7.960568326430702 15.684830229480726 0 0 -2
186 24 2 0.751 9.971906895283254 1.8800731265501538 16.176016862656336 0 -1 0
4396 550 4 -0.595 1.2363386148102051 3.9202800558458613 20.375570287254533 0 1 -1
2688 336 8 0.43 1.164137790413213 10.068791830677938 15.561763792513423 -1 1 0
2750 344 6 0.09 3.3414323318987016 -0.22560806767675473 18.056058872031116 -1 1 0
5615 702 7 0.09 6.990099854106543 2.6934195034671164 23.527687962904302 5 1 0
3193 400 1 -0.295 1.5643217191687828 8.519122858238937 21.04036351364705 1 0 0
5516 690 4 -0.595 4.970860972506899 7.243174830839312 22.507828777528115 0 -1 0
2752 344 8 0.43 3.2076590456474086 -0.24799692464261025 21.214434411579347 -1 1 0
4399 550 7 0.09 -0.2483754130020114 1.985366050017637 20.69589623390156 0 1 -1
5616 702 8 0.43 4.761479495167988 2.0827627242483664 20.716388360262137 5 1 0
132 17 4 -0.595 4.049302033045207 1.8260178671272502 24.009474221472708 -2 1 0
3197 400 5 0.09 1.8109232002807323 9.568350677097627 20.859266503661896 1 0 0
3391 424 7 0.09 8.331907913238933 0.07036621034102525 20.697277988161474 0 1 2
5520 690 8 0.43 5.010142079988787 8.151548735367054 22.161320731163336 0 -1 0
5514 690 2 0.751 5.434423041756354 7.458898199974 23.724633156100918 0 -1 0
5517 690 5 0.09 6.6070092245651 6.142142809076795 24.940920604493027 0 -1 0
5614 702 6 0.09 8.094555985014388 2.783787894278634 22.063068839596585 5 1 0
3007 376 7 0.09 0.61907140627249 0.25594213582401726 24.171722636428175 0 0 -1
135 17 7 0.09 1.388371992850282 2.2967616394879213 24.879439668609802 -2 1 0
5610 702 2 0.751 5.909495640046141 3.2375195820254863 21.74372433054707 5 1 0
5518 690 6 0.09 5.30991511331006 5.285126767756229 24.042842665285004 0 -1 0
2644 331 4 -0.595 0.11354997843718834 10.031384964142894 24.36784910174725 -1 -2 -1
5519 690 7 0.09 4.892225995218641 6.288411679488529 25.632928729585146 0 -1 0
5613 702 5 0.09 7.4205742115626245 4.303805370581241 22.798153306120277 5 1 0
5612 702 4 -0.595 5.559726061213874 1.9857683783060067 21.28594902589415 5 1 0
5801 726 1 -0.295 -0.19569540466899196 5.545091507526868 23.44301461952365 0 1 1
131 17 3 -0.561 2.8998592683893993 1.6481945583297501 22.092941636219873 -2 1 0
130 17 2 0.751 2.9550076143356936 2.057130589490741 23.243283503260894 -2 1 0
5611 702 3 -0.561 5.153635787048036 4.166216218789961 21.55783102633256 5 1 0
5515 690 3 -0.561 5.8800370440140615 8.55101607758948 24.07390816324636 0 -1 0
134 17 6 0.09 2.396652471179821 3.763228174010165 24.45816696209439 -2 1 0
3198 400 6 0.09 2.1749157750936927 8.245865612903113 21.861766215196667 1 0 0
5609 702 1 -0.295 7.175840517125283 3.2363281468502154 22.526990051067546 5 1 0
129 17 1 -0.295 1.9215686263447127 2.8583565982397903 24.090050900819428 -2 1 0
136 17 8 0.43 4.644582022749228 1.2824899204659024 23.58338421617421 -2 1 0
3199 400 7 0.09 0.49610894040607256 8.49767515103622 21.411304421712092 1 0 0
133 17 5 0.09 1.0227224048930064 3.1684766152759813 23.511070521411263 -2 1 0
5513 690 1 -0.295 5.557560918279073 6.244105977435129 24.64027739578651 0 -1 0
5807 726 7 0.09 0.921407825170081 5.385197774429382 23.58103204395732 0 1 1
75 10 3 -0.561 5.223515762883745 9.565927385817215 20.917613372286677 1 -2 -1
1238 155 6 0.09 9.900435082156672 -0.049218181023335084 22.671228568965166 0 2 0
481 61 1 -0.295 9.989692762039827 5.7964268949733855 25.379882368316082 2 1 -2
84 11 4 -0.595 6.122980724661915 -0.24386870936445276 23.66988547347185 1 2 -2
485 61 5 0.09 9.233708504767094 5.754404364177327 24.625116615605734 2 1 -2
2856 357 8 0.43 8.551142549925896 5.147087506438425 20.881292349578967 -1 -1 0
503 63 7 0.09 9.889410912668687 8.005227583338002 22.83049845054027 2 0 0
5414 677 6 0.09 7.58052919771729 9.213673988613198 25.51171518533964 2 3 1
125 16 5 0.09 6.3403373004238865 3.665399462025168 26.751745860447656 -1 0 -1
2045 256 5 0.09 2.653496054108597 5.169567713922484 26.232627890612076 -1 0 -1
4112 514 8 0.43 8.43739970603023 0.42300777554142666 28.39780272676479 1 1 -1
5411 677 3 -0.561 6.6675141381889205 8.557780319959505 28.31285803461235 2 3 1
4107 514 3 -0.561 9.670235246572798 0.7338169725812878 30.443449542602032 1 1 -1
2647 331 7 0.09 1.0369659499154176 9.319805132780104 27.43804670420222 -1 -2 -1
123 16 3 -0.561 8.10729363997909 5.624484955372819 28.387329794104726 -1 0 -1
128 16 8 0.43 6.197744116782851 6.538664660575877 28.932063449046503 -1 0 -1
126 16 6 0.09 6.3978161556285436 2.998624503461447 28.46049019259793 -1 0 -1
2042 256 2 0.751 1.723924096681606 4.170296286001715 27.846741316219205 -1 0 -1
438 55 6 0.09 0.672403569439521 -0.15231827584926552 27.66647689849882 -1 2 0
521 66 1 -0.295 2.6934656900978378 0.628701999092994 30.887539862785594 -1 2 -2
2641 331 1 -0.295 0.3991033115579151 9.169053938794317 26.547968455068204 -1 -2 -1
2043 256 3 -0.561 2.102140067691974 3.037448589562729 27.7860857136479 -1 0 -1
5410 677 2 0.751 7.471701049971308 9.206503490648533 27.660489494540094 2 3 1
5415 677 7 0.09 8.12245322507436 7.639535719130625 26.261188067375002 2 3 1
2046 256 6 0.09 3.2796480233548904 5.731292120076737 27.707660285143774 -1 0 -1
439 55 7 0.09 -0.0627879576195664 1.2860737460785303 26.97161565087111 -1 2 0
2597 325 5 0.09 3.368207145178591 5.753244714368522 30.245165131097213 0 -1 -4
2645 331 5 0.09 0.6384253577333443 8.174116326333412 26.052779248506614 -1 -2 -1
87 11 7 0.09 7.284391591129933 1.342728456216014 25.885798912527044 1 2 -2
121 16 1 -0.295 6.875366732083017 3.643214665604163 27.729748280236283 -1 0 -1
122 16 2 0.751 7.079930285757327 5.002216017838807 28.30032641016887 -1 0 -1
2044 256 4 -0.595 0.5152357194229894 4.5208521934283 28.476203074160264 -1 0 -1
2048 256 8 0.43 0.06253348974083622 3.8000510377888403 28.880035876305733 -1 0 -1
124 16 4 -0.595 5.909016116439718 5.679197944056558 28.661433161682723 -1 0 -1
127 16 7 0.09 7.864827300374578 3.2318583470013853 27.34046772718091 -1 0 -1
2041 256 1 -0.295 2.342939370883663 5.400614603236042 27.258917527650567 -1 0 -1
2047 256 7 0.09 1.6778749317588963 6.28425695764839 27.279163463285055 -1 0 -1
527 66 7 0.09 2.626744906250561 1.232921053189336 29.964792805467656 -1 2 -2
4108 514 4 -0.595 7.881888267987656 0.867316698108819 29.03502638257282 1 1 -1
5409 677 1 -0.295 8.140454368452556 8.74042204222335 26.38798438668483 2 3 1
2813 352 5 0.09 3.452606123942567 9.894692248957224 30.182697813651437 1 0 -2
5413 677 5 0.09 9.197995873025267 9.00018647567859 26.406730365484986 2 3 1
4106 514 2 0.751 8.55777520255463 1.0777869767224761 30.22577828242529 1 1 -1
81 11 1 -0.295 6.4591045396225395 0.5155936059696423 25.95268463418765 1 2 -2
5726 716 6 0.09 9.602611202256803 8.3357286230505 30.69709318560566 0 1 0
86 11 6 0.09 5.561966323960485 1.025711430071629 25.913868842956777 1 2 -2
85 11 5 0.09 6.55054980949291 0.08302606420533132 26.937456003214734 1 2 -2
487 61 7 0.09 9.550026000893542 5.644301096681175 26.386936074309688 2 1 -2
5725 716 5 0.09 8.20846103308785 7.240232002005621 30.32130037187048 0 1 0
433 55 1 -0.295 -0.23335899056339038 0.5214457240410969 27.71706731375432 -1 2 0
435 55 3 -0.561 -0.32319931912106903 2.1517272651413144 29.58729929906123 -1 2 0
2598 325 6 0.09 4.619000279213564 4.652874416754489 30.72332073087036 0 -1 -4
2815 352 7 0.09 5.023801904478626 9.220954867083751 30.916050397948542 1 0 -2
5721 716 1 -0.295 8.781124156638288 7.719038816076453 31.18997020097287 0 1 0
5681 711 1 -0.295 2.0460692764492987 7.627668567567175 33.59443144925316 1 2 0
2596 325 4 -0.595 1.7221696680650953 4.809886507051369 31.772159303793 0 -1 -4
1183 148 7 0.09 5.883238946490084 6.019503285107321 33.234343734139834 -1 1 0
1182 148 6 0.09 7.35537198181697 5.094108813202729 33.8244565185704 -1 1 0
1177 148 1 -0.295 6.217561447259765 5.335940825332727 33.984733982860696 -1 1 0
1181 148 5 0.09 5.690710296369646 4.386376622191662 33.96562183658752 -1 1 0
1932 242 4 -0.595 1.755423945577109 1.5172441226517106 34.14895814429895 -1 0 -1
2593 325 1 -0.295 3.866634138563934 5.275339526816259 31.110070374160898 0 -1 -4
926 116 6 0.09 8.327695490663753 3.041951739846114 35.23435852386955 -1 1 0
4110 514 6 0.09 7.665189304307103 2.8701482943800958 31.249136090299178 1 1 -1
4105 514 1 -0.295 7.6258584516590435 1.7632606403210462 31.29025106071426 1 1 -1
5688 711 8 0.43 1.00886156681449 4.9648641798203705 35.04916553489843 1 2 0
4109 514 5 0.09 6.609583378092376 1.4117998209920979 31.33523553988431 1 1 -1
4111 514 7 0.09 8.088176251709594 1.5485481973717727 32.29513163478511 1 1 -1
5722 716 2 0.751 9.423023594742848 6.596200614337937 32.01358158919213 0 1 0
2599 325 7 0.09 4.435739646048767 6.016416319380187 31.75059185453979 0 -1 -4
2595 325 3 -0.561 3.2236826156297433 3.492930414074291 32.73226783741929 0 -1 -4
5683 711 3 -0.561 3.094127300131357 5.956384648025784 35.12111178229593 1 2 0
1180 148 4 -0.595 5.723948081434855 7.245983852328982 35.358678125707556 -1 1 0
5682 711 2 0.751 2.12333633763991 6.457532877022136 34.55371432713801 1 2 0
3067 384 3 -0.561 0.025074134643266466 3.1106263668400227 32.75779679625748 0 1 -2
1178 148 2 0.751 6.00755861345879 5.891283364685004 35.33758655383479 -1 1 0
2594 325 2 0.751 2.9561609353076608 4.4172633117470035 31.968638369228223 0 -1 -4
5727 716 7 0.09 8.03792969076801 8.263029512385987 31.801213013957984 0 1 0
5685 711 5 0.09 2.981044314471358 8.265007034193182 33.54261631717615 1 2 0
1931 242 3 -0.561 1.0529283352665415 3.215403691193723 35.56137481875197 -1 0 -1
5686 711 6 0.09 1.1613585868689829 8.26699578630442 33.79558390613871 1 2 0
1936 242 8 0.43 2.2567005988611535 2.32261566582674 33.84305866059216 -1 0 -1
5723 716 3 -0.561 9.122526960938508 5.429708201433619 32.091336702286036 0 1 0
5684 711 4 -0.595 0.9185713727189229 5.814455887986326 34.63354274250113 1 2 0
1930 242 2 0.751 1.0145491115174734 2.054748099849468 35.16837424497722 -1 0 -1
2600 325 8 0.43 1.0872144344499461 4.174171913848535 32.205146916923695 0 -1 -4
921 116 1 -0.295 7.612864715186241 2.587445590637161 35.96662901790732 -1 1 0
5549 694 5 0.09 9.509419127395603 5.70855432711069 35.82094257877995 -1 -1 0
2809 352 1 -0.295 4.191721228123143 9.932211698147373 31.08031655293514 1 0 -2
2814 352 6 0.09 3.6044066652735514 9.729658919628157 32.019233197210355 1 0 -2
526 66 6 0.09 1.9071746096345632 0.972311395683368 31.61142639024297 -1 2 -2
5687 711 7 0.09 1.9391023413420734 7.126721952887942 32.62229562344028 1 2 0
5550 694 6 0.09 9.054870663652743 7.453346550612515 35.621569007465844 -1 -1 0
1935 242 7 0.09 0.6639932701931488 0.03654902271035648 35.880176379829805 -1 0 -1
925 116 5 0.09 6.501038874701139 2.5306633462420742 35.75114761333799 -1 1 0
1929 242 1 -0.295 0.10758866678718265 0.9766698593848018 35.67890236525779 -1 0 -1
525 66 5 0.09 3.6950803237344862 0.8068434274543481 31.34647593165097 -1 2 -2
5444 681 4 -0.595 8.988595935724899 5.523954667474044 40.77761777766666 1 1 0
1487 186 7 0.09 -0.11693020923356526 6.935409259211578 39.1936533274007 -1 -1 0
5814 727 6 0.09 2.1752547444955086 1.2153606286821146 39.30882769304472 0 2 -2
1485 186 5 0.09 0.6235946640229852 7.599613015316322 40.68409728549313 -1 -1 0
5811 727 3 -0.561 4.785834235651078 1.4804075157055658 37.398687302771656 0 2 -2
1481 186 1 -0.295 -0.06127372259082564 7.828133536987038 39.904674713273984 -1 -1 0
4230 529 6 0.09 4.3654141618104445 8.576673616960019 40.35040596600597 -1 2 0
5810 727 2 0.751 3.591498347715975 1.119658371635529 37.4977490062079 0 2 -2
1123 141 3 -0.561 8.94081493194777 8.42268852126487 39.33463175170893 0 3 -1
1179 148 3 -0.561 6.1231115018727555 5.310736247412423 36.37860285926405 -1 1 0
4232 529 8 0.43 6.097793039061576 5.828370103474984 38.00626763324484 -1 2 0
1486 186 6 0.09 0.23013335777320032 8.729216365212963 39.288646414763235 -1 -1 0
4231 529 7 0.09 5.924962222501623 8.07337454490414 40.91429246620594 -1 2 0
928 116 8 0.43 6.480975702439726 0.9638784157521014 37.41394920188677 -1 1 0
5448 681 8 0.43 8.95026037847218 6.377909895967291 40.41667983844789 1 1 0
5447 681 7 0.09 8.536232226304172 2.8352824193859467 40.636331651620814 1 1 0
4227 529 3 -0.561 4.863801206756348 7.974444129443186 37.97878078776496 -1 2 0
4226 529 2 0.751 5.311406167900679 7.340967997987254 38.94349951398842 -1 2 0
1934 242 6 0.09 -0.20626707792719923 1.2466986881484814 36.74950723787692 -1 0 -1
4229 529 5 0.09 4.6519673426004156 6.8216043810499665 40.9336546023185 -1 2 0
924 116 4 -0.595 7.302742692871185 0.5363263856962345 37.33037034715326 -1 1 0
5813 727 5 0.09 2.8473744692505942 2.766151665264175 38.7387693356135 0 2 -2
4225 529 1 -0.295 5.093617103038222 7.674796258034468 40.38801640315288 -1 2 0
1125 141 5 0.09 8.854237239246249 9.79855370646175 36.91393182685239 0 3 -1
923 116 3 -0.561 9.221023210608298 0.8074927254971347 36.24329122313923 -1 1 0
1122 141 2 0.751 8.692355855754275 9.580283832357551 39.0031918749816 0 3 -1
4228 529 4 -0.595 6.012511738949064 6.193077627582064 38.90257147094883 -1 2 0
5551 694 7 0.09 9.076890967834366 6.835596846236388 37.27970686910702 -1 -1 0
2877 360 5 0.09 1.3171742673941653 0.3646150796529307 41.21413021237135 -1 1 1
1184 148 8 0.43 5.535134061038679 7.4660051360442425 36.25148723801397 -1 1 0
5442 681 2 0.751 9.467278651472611 4.67952537651111 39.77162021819586 1 1 0
5812 727 4 -0.595 3.1822913199529577 0.02307255395114921 36.85773453249009 0 2 -2
5446 681 6 0.09 9.406927663351777 2.637029555011842 39.17566064469176 1 1 0
5815 727 7 0.09 1.5289987377235301 1.9042511125132586 37.8203469562135 0 2 -2
922 116 2 0.751 8.121670037768755 1.2624018389724696 36.51477217864759 -1 1 0
5809 727 1 -0.295 2.4878480750735728 1.6974844684719672 38.404094282994386 0 2 -2
5441 681 1 -0.295 9.435343388008619 3.224775504789149 40.08679707382555 1 1 0
3702 463 6 0.09 3.965070402805761 2.8742965876295976 40.73201910308413 2 1 -1
3703 463 7 0.09 5.455397809096636 4.004459047307592 40.68377048213433 2 1 -1
927 116 7 0.09 7.606809400963369 3.3633612578977807 36.75245282812471 -1 1 0
47 6 7 0.09 0.06658346961258571 3.984545347753615 38.30775680210963 -1 -2 2
5443 681 3 -0.561 9.853338741691317 5.177500765547767 38.74606770795729 1 1 0
5545 694 1 -0.295 9.548869580285402 6.7579425579397725 36.25955009201961 -1 -1 0
214 27 6 0.09 2.287779208164037 5.815437241576085 40.89448844499968 2 0 1
3700 463 4 -0.595 5.094178903746904 0.8903234953184733 41.18881827295905 2 1 -1
3697 463 1 -0.295 4.813469686891522 3.301481563162026 41.213444423275206 2 1 -1
1887 236 7 0.09 3.993201012970819 9.95028553653789 37.665896381293784 0 0 -2