LAMMPS data file via write_data, version 29 Aug 2024, timestep = 1000000, units = real

6517 atoms
19 atom types
6517 bonds
19 bond types
12691 angles
37 angle types
25039 dihedrals
73 dihedral types

2.6240269545692705 42.375973045430925 xlo xhi
2.6240269545692705 42.375973045430925 ylo yhi
2.6240269545692705 42.375973045430925 zlo zhi

Masses

1 12.011
2 12.011
3 12.011
4 12.011
5 12.011
6 12.011
7 15.999
8 1.008
9 1.008
10 1.008
11 1.008
12 1.008
13 1.008
14 1.008
15 1.008
16 1.008
17 1.008
18 1.008
19 1.008

Pair Coeffs # lj/charmmfsw/coul/long

1 0.055999 3.58141 0.01 3.38542
2 0.055999 3.58141 0.01 3.38542
3 0.055999 3.58141 0.01 3.38542
4 0.032 3.56359 0.01 3.38542
5 0.055999 3.58141 0.01 3.38542
6 0.055999 3.58141 0.01 3.38542
7 0.192101 3.14487 0.192101 3.14487
8 0.035 2.38761 0.035 2.38761
9 0.035 2.38761 0.035 2.38761
10 0.035 2.38761 0.035 2.38761
11 0.035 2.38761 0.035 2.38761
12 0.035 2.38761 0.035 2.38761
13 0.035 2.38761 0.035 2.38761
14 0.045 2.38761 0.045 2.38761
15 0.035 2.38761 0.035 2.38761
16 0.035 2.38761 0.035 2.38761
17 0.035 2.38761 0.035 2.38761
18 0.035 2.38761 0.035 2.38761
19 0.045999 0.400014 0.045999 0.400014

Bond Coeffs # harmonic

1 222.5 1.53
2 222.5 1.53
3 222.5 1.538
4 222.5 1.538
5 222.5 1.53
6 428 1.42
7 309 1.111
8 309 1.111
9 309 1.111
10 309 1.111
11 309 1.111
12 309 1.111
13 309 1.111
14 309 1.111
15 309 1.111
16 309 1.111
17 309 1.111
18 545 0.96
19 222.5 1.53

Angle Coeffs # charmm

1 58.35 113.6 11.16 2.561
2 58.35 113.5 11.16 2.561
3 58.35 113.5 11.16 2.561
4 58.35 113.6 11.16 2.561
5 75.7 110 0 0
6 26.5 110.1 22.53 2.179
7 26.5 110.1 22.53 2.179
8 26.5 110.1 22.53 2.179
9 26.5 110.1 22.53 2.179
10 26.5 110.1 22.53 2.179
11 26.5 110.1 22.53 2.179
12 34.5 110.1 22.53 2.179
13 33.43 110.1 22.53 2.179
14 33.43 110.1 22.53 2.179
15 26.5 110.1 22.53 2.179
16 26.5 110.1 22.53 2.179
17 50 106 0 0
18 35.5 109 5.4 1.802
19 34.5 110.1 22.53 2.179
20 26.5 110.1 22.53 2.179
21 75.7 110 0 0
22 35.5 109 5.4 1.802
23 58.35 113.5 11.16 2.561
24 26.5 110.1 22.53 2.179
25 35.5 109 5.4 1.802
26 45.9 108.89 0 0
27 26.5 110.1 22.53 2.179
28 26.5 110.1 22.53 2.179
29 35.5 109 5.4 1.802
30 26.5 110.1 22.53 2.179
31 35.5 109 5.4 1.802
32 33.43 110.1 22.53 2.179
33 33.43 110.1 22.53 2.179
34 58.35 113.6 11.16 2.561
35 26.5 110.1 22.53 2.179
36 26.5 110.1 22.53 2.179
37 26.5 110.1 22.53 2.179

Dihedral Coeffs # charmmfsw

1 0.5 3 0 1
2 0.2 3 0 1
3 0.0645 2 0 1
4 0.3 1 0 1
5 0.195 3 180 1
6 0.195 3 180 1
7 0.195 3 0 1
8 0.195 3 0 1
9 0.2 3 0 0
10 0.195 3 0 1
11 0.22 3 0 1
12 0.0645 2 0 0
13 0.195 3 0 1
14 0.195 3 180 1
15 0.3 1 0 1
16 0.195 3 0 1
17 0.22 3 0 1
18 0.22 3 0 1
19 0.195 3 0 1
20 0.195 3 0 1
21 0.195 3 0 1
22 0.195 3 0 1
23 0.195 3 0 1
24 0.195 3 0 1
25 0.22 3 0 1
26 0.195 3 0 1
27 0.22 3 0 1
28 0 3 0 1
29 0.195 1 0 1
30 0.195 1 0 1
31 0.22 3 0 1
32 0.22 3 0 1
33 0.195 3 0 1
34 0.22 3 0 1
35 0.22 3 0 1
36 0.195 1 0 1
37 0.195 3 0 1
38 0.195 3 0 1
39 0.195 3 0 1
40 0.22 3 0 1
41 0.22 3 0 1
42 0.195 1 0 1
43 0.5 1 180 1
44 0.195 3 0 1
45 0.5 3 0 0
46 0.22 3 0 1
47 0.22 3 0 1
48 0.22 3 0 1
49 0.22 3 0 1
50 0.195 3 0 1
51 0.195 3 0 1
52 0.195 3 180 1
53 0.5 1 180 1
54 0.195 3 0 1
55 0.22 3 0 1
56 0.195 3 0 1
57 0.195 3 0 1
58 0.5 6 180 0
59 0.14975 3 180 0
60 0.09458 4 0 0
61 0.11251 5 0 0
62 0.3 3 0 0
63 0.14975 3 180 0
64 0.09458 4 0 0
65 0.11251 5 0 0
66 0.3 3 0 0
67 0.7 2 0 0
68 0.4 3 0 0
69 0.4 5 0 0
70 0.5 6 180 0
71 0.7 2 0 0
72 0.4 3 0 0
73 0.4 5 0 0

Atoms # full

6159 325 3 -0.201 4.239262638614185 8.785467411409819 4.590558949515154 0 0 1
6168 325 12 0.09 4.890649335707351 8.684569248374546 3.7141705439274326 0 0 1
6171 325 15 0.09 4.8460121111235175 6.286896374490099 3.7780080918221772 0 0 1
6161 325 5 -0.201 4.1555765047668185 6.3702661242805245 4.66027672159351 0 0 1
6165 325 9 0.09 6.5740567810444475 7.258210378272605 5.004594604121105 0 0 1
3498 185 2 -0.191 12.351969766273657 13.41659492498288 7.486560267551801 0 0 0
6243 329 11 0.09 8.471279055271275 3.0461754603610647 9.724488620082926 1 0 1
6234 329 2 -0.191 9.161174134223252 3.8646069658511335 9.35436050511389 1 0 1
6240 329 8 0.09 10.679127597559642 3.198850561194542 10.692814687911548 1 0 1
6242 329 10 0.09 8.992186404761895 4.843638808257181 9.849696806337427 1 0 1
6157 325 1 -0.134 5.980976272062458 7.569616453106954 5.89507099537785 0 0 1
6173 325 17 0.09 5.645279919093364 5.4528639144785656 5.925893556795491 0 0 1
6233 329 1 -0.134 10.61258262530505 3.3297668337685673 9.622984999093493 1 0 1
2177 115 11 0.09 7.794318388033002 7.261197816518624 11.067038486420126 1 1 1
2168 115 2 -0.191 7.270476582267087 8.223248803342896 11.069628096926547 1 1 1
184 10 13 0.09 3.1378188716115707 5.937319454009145 11.419146437896014 0 -1 0
1510 80 9 0.09 9.139460622496292 14.433762673093133 11.600891389091927 0 1 0
6244 329 12 0.09 9.515490561396321 4.726869951331854 7.413284550640551 1 0 1
2183 115 17 0.09 10.029344064559334 10.370640314639925 11.334452945871243 1 1 1
6162 325 6 -0.191 5.045061885096937 6.375523049038851 5.936081545500391 0 0 1
2185 115 19 0.42 9.00897227843133 7.704107584430401 9.517352549787732 1 1 1
2173 115 7 -0.649 8.83437288930714 7.831161559175041 8.561115944279184 1 1 1
2384 126 9 0.09 6.308612545126576 11.938703783866895 7.675516566770256 1 0 1
3682 194 15 0.09 8.353277200687403 3.6386430491832438 3.80455503324463 0 2 1
174 10 3 -0.201 3.262401348005262 4.847711848102696 11.393066970525918 0 -1 0
6164 325 8 0.09 6.762254987042915 7.5611035006634815 6.662637575865896 0 0 1
3507 185 11 0.09 11.538822141495599 12.739847570687356 7.668244241651245 0 0 0
3515 185 19 0.42 11.594901283471097 13.219533018111367 9.852581012174909 0 0 0
3684 194 17 0.09 10.663146467076865 3.1357318570927553 3.556443880357617 0 2 1
6245 329 13 0.09 7.7712253362947905 4.181850442026207 7.6644798970236865 1 0 1
6160 325 4 0.157 3.2763948549378608 7.599516425047727 4.53893457474963 0 0 1
3672 194 5 -0.201 8.8331048636751 3.991732128022319 2.8732780701029927 0 2 1
6158 325 2 -0.191 5.2021323462884315 8.862481121390077 5.731680959338932 0 0 1
6235 329 3 -0.201 8.828398885402096 3.980272309831318 7.824461349766915 1 0 1
6174 325 18 0.09 4.345967006343642 6.50185392206765 6.79950920538746 0 0 1
6241 329 9 0.09 11.475704229300653 4.045411904496485 9.356520978362923 1 0 1
2176 115 10 0.09 6.370499205476015 7.904420643440252 11.624793357262137 1 1 1
2171 115 5 -0.201 8.933012656362134 9.984830336009061 9.454994207427493 1 1 1
3926 207 12 0.09 8.930278792261204 10.671598959851885 2.7307789329029077 1 0 0
183 10 12 0.09 3.4724985042931404 4.649261327503103 10.286169000773338 0 -1 0
487 26 12 0.09 3.354770078538626 8.333049736877147 11.921802459521002 0 0 0
6167 325 11 0.09 4.7551632825118 8.986607443987419 6.704779967283716 0 0 1
2390 126 15 0.09 8.899692883007978 12.786595446026592 7.565769287427772 1 0 1
5619 296 14 0.09 2.8091256835307745 3.6180373966565886 5.60634661038564 0 0 1
6247 329 15 0.09 11.25158963042419 3.0950623800011767 6.904399881562444 1 0 1
6166 325 10 0.09 5.981847103098801 9.61245766456964 5.541447018775771 0 0 1
6172 325 16 0.09 3.492159570115717 5.412230634281163 4.602347968276222 0 0 1
5621 296 16 0.09 4.459291854057064 3.121023086054955 3.832934625607489 0 0 1
2184 115 18 0.09 10.01911799250298 8.563383440252363 10.768382357957236 1 1 1
3425 181 5 -0.201 11.75157002966576 7.117480745589187 5.566822464352961 1 0 1
3427 181 7 -0.649 9.39413911226608 7.117621387144986 5.874425683255718 1 0 1
2379 126 4 0.157 7.990209345185025 14.6816705461573 6.960019552580351 1 0 1
2172 115 6 -0.191 9.389566422487825 9.527852872823274 10.892479874129195 1 1 1
2167 115 1 -0.134 8.23260432107155 9.200571047613092 11.788653230031082 1 1 1
2181 115 15 0.09 8.294809462264073 10.86213737278964 9.596598580336195 1 1 1
489 26 14 0.09 3.7399691478007977 8.138054749753142 9.391379212271012 0 0 0
173 10 2 -0.191 4.149856941131496 4.197456850145832 12.409868382164422 0 -1 0
3423 181 3 -0.201 10.300388206115507 8.962494952546228 4.635025507790579 1 0 1
1516 80 15 0.09 6.465706228640327 14.806092037304921 11.795556390551358 0 1 0
3503 185 7 -0.649 12.326138556992477 13.04665932892656 10.465837458050311 0 0 0
1507 80 6 -0.191 7.595787452782104 13.021370427787758 11.276006148890854 0 1 0
3433 181 13 0.09 9.329701279973545 9.38148898406882 4.297180124476016 1 0 1
1519 80 18 0.09 7.3607854139045275 11.942687888576797 11.332700436054301 0 1 0
3432 181 12 0.09 11.057767759132487 9.160659706094044 3.805937264004033 1 0 1
3434 181 14 0.09 10.239847446940427 6.769505286829764 3.9944742591437423 1 0 1
3424 181 4 0.157 10.401131198000078 7.410033961001866 4.866439196488116 1 0 1
2182 115 16 0.09 9.878670728580914 10.120554279943509 8.889789228976458 1 1 1
478 26 3 -0.201 3.3336785871801426 9.211333046721691 11.276265015344608 0 0 0
3439 181 19 0.42 9.511759992909965 7.759358818984043 6.6139079688352975 1 0 1
6169 325 13 0.09 3.6453788516892542 9.68244431922756 4.590825564382353 0 0 1
2380 126 5 -0.201 8.548060006037629 13.23601176710263 6.624728358548283 1 0 1
6175 325 19 0.42 3.119491157283005 8.285352780178593 6.183698636522138 0 0 1
1506 80 5 -0.201 6.458518690986597 13.688636397071225 11.974021424112575 0 1 0
3673 194 6 -0.191 9.985593746749153 3.017181925618067 2.669269144840307 0 2 1
3111 164 14 0.09 9.725611738751192 14.23048648970667 3.6564853453917774 1 0 0
172 10 1 -0.134 4.169033399822969 2.703534342743391 12.062988209198409 0 -1 0
3421 181 1 -0.134 11.962792213865601 9.517068641657538 6.378038163007934 1 0 1
3514 185 18 0.09 10.92806038107603 14.948630509594455 9.203248286000807 0 0 0
6170 325 14 0.09 2.627643496450457 7.624522031201564 3.563674130530794 0 0 1
3438 181 18 0.09 11.430247757282787 7.73746395707741 7.60586080799861 1 0 1
482 26 7 -0.649 3.0140951974745187 9.987182126208015 9.01550472141447 0 0 0
3436 181 16 0.09 11.651543725686386 6.0992669809377125 5.998509732321325 1 0 1
479 26 4 0.157 2.9929176856047324 8.839540149771114 9.826822944655433 0 0 0
1502 80 1 -0.134 8.991440546159907 13.375802211344626 11.86533039471683 0 1 0
3428 181 8 0.09 12.34964861632708 10.225822058965342 7.135164878839085 1 0 1
2175 115 9 0.09 7.809208043260702 10.219499570960975 12.04258735927797 1 1 1
3426 181 6 -0.191 12.053563206832907 8.043223093835698 6.746787487242339 1 0 1
3101 164 4 0.157 10.050975393707205 14.74697465315395 2.643922768934207 1 0 0
2391 126 16 0.09 9.48161086200621 13.355455349814074 5.931521598131155 1 0 1
5620 296 15 0.09 5.38376042709802 3.150543635292507 5.348526820251381 0 0 1
2383 126 8 0.09 5.365318782352295 11.819860822197407 6.2288721629222215 1 0 1
3422 181 2 -0.191 10.586756299671759 9.915313807773632 5.816351535895896 1 0 1
2394 126 19 0.42 6.989451651130545 15.360603080374611 5.491140295128344 1 0 1
3430 181 10 0.09 10.626799658805647 10.963544201008176 5.508496956825663 1 0 1
2179 115 13 0.09 6.320131953391196 7.750244035100489 9.204670957951313 1 1 1
2169 115 3 -0.201 6.823937020464285 8.662209226440996 9.675992145807772 1 1 1
2392 126 17 0.09 7.687902693569305 11.373959454130087 5.800372750576107 1 0 1
2178 115 12 0.09 6.253937180373697 9.589104385219478 9.797244335935765 1 1 1
3431 181 11 0.09 9.773522888500452 9.858664213738578 6.553909469333304 1 0 1
1699 90 8 0.09 3.819385799080603 14.609186481581757 10.326551093090124 0 0 0
2393 126 18 0.09 7.363387220592633 12.858928065877219 4.889499292490098 1 0 1
488 26 13 0.09 4.269211758619036 9.659470941221159 11.236970399676698 0 0 0
5617 296 12 0.09 4.099927070707381 2.745103075605679 7.489314455713625 0 0 1
1692 90 1 -0.134 3.4729719910961605 15.64568889546376 10.343700982765647 0 0 0
2377 126 2 -0.191 5.617121631499618 13.848143970306518 6.99607881342849 1 0 1
2382 126 7 -0.649 7.930207391640265 15.467040190229008 5.807438983225766 1 0 1
2170 115 4 0.157 8.032267504312713 8.980230120348047 8.72272698463684 1 1 1
3497 185 1 -0.134 12.102551251456362 14.887150879153767 7.296629664025972 0 0 0
3923 207 9 0.09 6.639008428524829 10.03774408016491 3.1908368662608293 1 0 0
2180 115 14 0.09 7.700460646069631 9.2739408039909 7.7588630261843585 1 1 1
3588 189 16 0.09 10.090292048790957 4.522425930098055 12.446554975200671 0 2 1
1517 80 16 0.09 5.510283990955917 13.304830914656918 11.588109591367811 0 1 0
1509 80 8 0.09 9.747782859018237 12.746321578208777 11.419911684320047 0 1 0
3502 185 6 -0.191 11.745189422491654 15.432241032397384 8.695205594314286 0 0 0
2378 126 3 -0.201 6.6734973501388755 14.689319023989897 7.716214660140826 1 0 1
2385 126 10 0.09 4.581170869642497 13.834712531962051 7.4631256350292245 1 0 1
3504 185 8 0.09 11.262170719826146 15.0119009416921 6.603687777907939 0 0 0
2376 126 1 -0.134 6.1163265827876945 12.441072948847506 6.7303414428794905 1 0 1
2386 126 11 0.09 5.415879009381422 14.374694255096093 6.116874555149895 1 0 1
2389 126 14 0.09 8.74156625687683 15.092592781259098 7.585772953323518 1 0 1
3683 194 16 0.09 9.19756130181003 5.0379254158039 3.0106751916691907 0 2 1
1518 80 17 0.09 7.660356658139664 13.222097221061405 10.18393200234252 0 1 0
2381 126 6 -0.191 7.439514946805817 12.414769710631324 5.950823290759416 1 0 1
2387 126 12 0.09 6.764359134177532 14.163028824288691 8.708490762070788 1 0 1
181 10 10 0.09 5.200218694112911 4.603559259223122 12.483351492642791 0 -1 0
2388 126 13 0.09 6.331367478432129 15.703363710362268 7.856015925369285 1 0 1
5610 296 5 -0.201 4.562567969960596 2.6363413234775903 4.7971588280838935 0 0 1
6246 329 14 0.09 8.946328459085672 2.7194136799639756 5.9923688344373165 1 0 1
5609 296 4 0.157 3.228033017514712 2.641425044888536 5.559820468498708 0 0 1
3512 185 16 0.09 12.475440210442281 15.607407481701644 10.70643157621352 0 0 0
2850 150 19 0.42 6.24186693097468 6.779588460960538 17.830881140283644 2 0 0
2916 154 9 0.09 9.63771670422466 9.582146152980215 15.592547337210318 1 -1 1
2873 152 4 0.157 7.81168811738519 6.6796097754126045 20.387423854953127 0 0 1
2836 150 5 -0.201 4.087795708577653 7.382116221718478 17.088384785142445 2 0 0
2888 152 19 0.42 6.751438592893344 5.081604140622384 20.051072751606092 0 0 1
2835 150 4 0.157 5.41343642737537 8.141468404016987 16.953156733008896 2 0 0
2845 150 14 0.09 5.3992745408041625 8.966902065597154 17.76124374610704 2 0 0
2838 150 7 -0.649 6.481249898669242 7.241782978697457 17.04050749747943 2 0 0
2884 152 15 0.09 10.021124880082303 6.731457620749183 20.357321473531922 0 0 1
2874 152 5 -0.201 9.198186048469783 6.321592725291863 19.777187927118835 0 0 1
3578 189 6 -0.191 9.324780071302655 6.0778367324983416 13.793586799466862 0 2 1
2871 152 2 -0.191 8.12766953352195 4.79763340571627 21.980395926726068 0 0 1
2875 152 6 -0.191 9.447321479190194 4.8396673287731105 19.935413671842554 0 0 1
2834 150 3 -0.201 5.394744449150403 8.798940670945724 15.505656728884544 2 0 0
2842 150 11 0.09 5.693176329026939 7.152333613854489 14.09622827529354 2 0 0
3584 189 12 0.09 10.628503877675918 4.450792723247029 16.185691453621246 0 2 1
2844 150 13 0.09 6.401265087538527 9.209616647146802 15.325351860987025 2 0 0
2843 150 12 0.09 4.796140112746462 9.70099767907423 15.45901554752133 2 0 0
2833 150 2 -0.191 4.885048829108492 7.886048437878038 14.346721457972196 2 0 0
2872 152 3 -0.201 7.8104834406678005 6.286352843763369 21.868698284569952 0 0 1
2840 150 9 0.09 2.7303891175427544 8.133549472472321 14.744463662344703 2 0 0
2841 150 10 0.09 4.720822745957189 8.539848231607412 13.470563765693976 2 0 0
3239 171 9 0.09 11.937562280272095 5.638603632648412 20.786209028223556 0 0 0
3582 189 10 0.09 10.818453581727542 6.74550132399174 16.865870732198537 0 2 1
2885 152 16 0.09 9.129001159051278 6.6308350762614445 18.72965333064801 0 0 1
3573 189 1 -0.134 9.315687543101795 6.504754504729697 15.26269279435001 0 2 1
2870 152 1 -0.134 9.519688589232105 4.478784016987971 21.41757485321421 0 0 1
2846 150 15 0.09 3.370050514546522 8.102444430300235 17.43246968637498 2 0 0
2849 150 18 0.09 4.450612614926735 5.7366234894279815 15.924084631130963 2 0 0
2847 150 16 0.09 4.1698826172683505 6.676155634065127 17.971432596761755 2 0 0
3580 189 8 0.09 8.852085290384752 7.4824903892757835 15.520357652122248 0 2 1
3587 189 15 0.09 9.18346731352613 3.9360363255652655 13.877067496185932 0 2 1
2876 152 7 -0.649 6.741626742540476 6.016796189407987 19.754364728498896 0 0 1
4441 234 14 0.09 12.17471562453356 2.9322353853948684 18.9163722486637 0 1 0
2878 152 9 0.09 10.25836009172078 5.068229330429355 22.038275465528386 0 0 1
3581 189 9 0.09 8.735968483086605 5.759723154697191 15.86036820670298 0 2 1
3576 189 4 0.157 11.32957000752358 4.639494224424542 14.151117886058936 0 2 1
5255 277 11 0.09 8.519268930034508 13.799660819942952 18.2229367406306 0 0 0
2883 152 14 0.09 7.689948691596918 7.770717010428085 20.295603394416055 0 0 1
3577 189 5 -0.201 9.913721117026487 4.697101023129271 13.529654113637468 0 2 1
4005 211 15 0.09 4.4774179979537925 7.357777629543058 21.81329900038881 0 1 -1
5245 277 1 -0.134 7.229900920816683 15.411846352027553 18.891057849263927 0 0 0
2924 154 17 0.09 11.811628099814204 9.538755243355961 16.481697790823674 1 -1 1
3247 171 17 0.09 11.840408726887198 8.01253070062807 20.574822041974993 0 0 0
3574 189 2 -0.191 10.751383793378247 6.540528444592561 15.75426021448595 0 2 1
3583 189 11 0.09 11.4178598070288 7.207963705009427 15.183432680101518 0 2 1
3575 189 3 -0.201 11.30084069015961 5.121284187144079 15.568287791011828 0 2 1
518 28 5 -0.201 4.091084212996775 3.8206922783776576 21.60836139361703 0 1 1
2919 154 12 0.09 7.573168433448495 10.002538370035788 17.67383972144345 1 -1 1
2837 150 6 -0.191 3.662067174571477 6.516080354531275 15.956943279468849 2 0 0
2922 154 15 0.09 9.859014090268762 8.690373888736072 17.77068493605468 1 -1 1
4000 211 10 0.09 4.510276822766985 11.206631223005475 20.57711759078488 0 1 -1
2911 154 4 0.157 9.319022800117958 10.380765222320267 18.846481776042804 1 -1 1
5791 305 15 0.09 7.372450770473075 3.769737173319018 16.763324458713992 1 0 1
3579 189 7 -0.649 12.395496934474242 5.236585863207199 13.352439989643132 0 2 1
2886 152 17 0.09 10.383661633601445 4.593421214581187 19.421974503129164 0 0 1
1511 80 10 0.09 9.97917800821348 13.306880575286424 13.906789970262647 0 1 0
2832 150 1 -0.134 3.528652119140877 7.315425755652515 14.70766290996198 2 0 0
528 28 15 0.09 4.501403259377264 4.756949327591668 21.73760184343214 0 1 1
527 28 14 0.09 3.05668650851892 4.6380656127014355 19.809283463921965 0 1 1
3589 189 17 0.09 8.334745357710721 6.300583487424796 13.30843841602638 0 2 1
5788 305 12 0.09 4.807181416962926 3.078915852389229 16.09518579152862 1 0 1
517 28 4 0.157 2.8369182059032876 3.975134107125139 20.734554150287867 0 1 1
2880 152 11 0.09 7.324967690903465 4.231307216305303 21.49316640648784 0 0 1
2839 150 8 0.09 3.32236546497331 6.595477880791244 13.897079133247995 2 0 0
2881 152 12 0.09 8.560112509464433 6.915773592833898 22.443841219028453 0 0 1
2887 152 18 0.09 8.576699213172597 4.290710458932419 19.387558447281265 0 0 1
3586 189 14 0.09 11.593992016481998 3.6239541400379336 14.281190656553889 0 2 1
5248 277 4 0.157 10.070822368427722 15.831583082761949 19.63147520361968 0 0 0
501 27 7 -0.649 12.25884532861403 13.263900520722158 15.913179498317206 0 1 1
2174 115 8 0.09 8.725123445897971 8.82011880348262 12.715352403563163 1 1 1
5263 277 19 0.42 9.759373305416128 13.951595366260227 19.90493735857704 0 0 0
5781 305 5 -0.201 7.578611346512882 2.6941449648311266 16.4096397958144 1 0 1
3994 211 4 0.157 2.7294200576083667 8.517341142841856 21.887680432602572 0 1 -1
4002 211 12 0.09 3.475963701656754 9.178795104147552 19.895615835284822 0 1 -1
3590 189 18 0.09 10.027775729966212 6.857141970882048 13.350478707006353 0 2 1
182 10 11 0.09 3.7575159687531707 4.302396175459951 13.455753209588588 0 -1 0
1514 80 13 0.09 7.843911411712915 13.824862397755792 15.097579743929655 0 1 0
3993 211 3 -0.201 3.0836971905015615 9.574745776815618 20.80330255385486 0 1 -1
2918 154 11 0.09 9.224264602954989 12.35497188805746 16.653087698116888 1 -1 1
1520 80 19 0.42 6.997928812309079 11.910497046673186 13.990710357905831 0 1 0
4001 211 11 0.09 3.483596718306617 11.234006490248753 22.099229623769588 0 1 -1
5257 277 13 0.09 10.38419580902465 15.185957620689456 17.620734718611644 0 0 0
2806 148 13 0.09 3.2913620318441694 15.526669520593561 21.10039362969383 0 0 -1
2923 154 16 0.09 11.096129382184623 9.081273039389796 18.911809356218722 1 -1 1
2908 154 1 -0.134 10.022711502098389 10.538755292747956 15.912880454318683 1 -1 1
5637 297 13 0.09 2.7403763688058413 12.383603989324252 14.628160200117573 0 0 0
3998 211 8 0.09 5.985836254556392 10.816648397038017 22.310122000016438 0 1 -1
2913 154 6 -0.191 11.082920724255713 10.199187005332645 16.973387058698705 1 -1 1
2912 154 5 -0.201 10.437866403807686 9.520577564396017 18.18466125835372 1 -1 1
2921 154 14 0.09 8.869741901998012 9.823548732793896 19.63059631364108 1 -1 1
1504 80 3 -0.201 7.9417300781209725 13.962142649041589 14.011315770710983 0 1 0
5635 297 11 0.09 3.7476178398753746 11.877740200855754 17.053283249820126 0 0 0
1512 80 11 0.09 8.842238063015934 11.984976645745528 13.38471679351726 0 1 0
2914 154 7 -0.649 9.85418855549872 11.52735308549255 19.409499225233585 1 -1 1
5628 297 4 0.157 2.7803276932511167 14.188228424904919 15.815215604132792 0 0 0
1508 80 7 -0.649 6.126704505588718 12.31381544432164 13.85669206263625 0 1 0
3991 211 1 -0.134 5.361665965190667 9.963461036077668 21.985199957038038 0 1 -1
5247 277 3 -0.201 9.59716767091955 15.73888713666885 18.162991832222403 0 0 0
5643 297 19 0.42 4.415075615625225 13.3196888057506 16.123796149598082 0 0 0
1505 80 4 0.157 6.510515210146901 13.580801982557535 13.466207857177729 0 1 0
529 28 16 0.09 4.769779388207546 3.2059810290184787 20.97304182687178 0 1 1
2926 154 19 0.42 10.487678359078867 11.733842902536418 18.770021198218643 1 -1 1
1513 80 12 0.09 8.249771077220664 15.101269950169016 13.848287531844631 0 1 0
5251 277 7 -0.649 10.552668252631708 14.50837511408989 20.00270211567998 0 0 0
332 18 9 0.09 11.994550189136802 12.453146610145794 20.575090391001822 0 0 0
2915 154 8 0.09 10.654269887128338 10.981363104425986 15.096710915247506 1 -1 1
3245 171 15 0.09 12.266546929327118 6.722046909075976 18.558122842415983 0 0 0
5261 277 17 0.09 6.927987319189671 15.541354666280935 21.11655960517367 0 0 0
5631 297 7 -0.649 4.192667821265699 14.275171263709707 16.068294647298217 0 0 0
1503 80 2 -0.191 9.038679203626966 13.075277376566373 13.378265140740153 0 1 0
5642 297 18 0.09 3.340322006694083 14.06792746459859 18.541902863253583 0 0 0
1515 80 14 0.09 5.727958089626263 14.326301887303682 13.8238503462281 0 1 0
5790 305 14 0.09 6.527854604994366 3.0768381323384206 14.432687168486323 1 0 1
3999 211 9 0.09 5.873585790850868 9.296256072766255 21.24128514236371 0 1 -1
3992 211 2 -0.191 4.118229987032698 10.564513934055718 21.32596666092154 0 1 -1
2877 152 8 0.09 9.757875759541244 3.422312122755235 21.48161387371975 0 0 1
508 27 14 0.09 11.524774213852044 15.200114869651566 15.650661584297096 0 1 1
5262 277 18 0.09 7.802534716232637 14.104277618465947 20.60819695359483 0 0 0
498 27 4 0.157 12.522280629152402 14.619452593915314 15.695985506823934 0 1 1
2848 150 17 0.09 2.7326752236094345 5.982570604151872 16.13912658164427 2 0 0
2917 154 10 0.09 8.037296939509773 11.410479507366718 15.701709415399172 1 -1 1
5250 277 6 -0.191 7.682907289556879 15.209815293645047 20.35163608412279 0 0 0
2909 154 2 -0.191 8.854952687044587 11.314787934365691 16.495422447550432 1 -1 1
2882 152 13 0.09 6.812327394714095 6.575147546315446 22.30044178721628 0 0 1
2910 154 3 -0.201 8.267929916128292 10.850109200068854 17.799314240730624 1 -1 1
5254 277 10 0.09 8.03053780757029 14.996689793427413 16.97174285064981 0 0 0
2920 154 13 0.09 7.615008660014985 11.669654443022056 18.228310302224486 1 -1 1
5246 277 2 -0.191 8.346080444104128 14.903736361254555 18.010611651952154 0 0 0
5252 277 8 0.09 6.252127016726542 14.945721006282684 18.670482968897396 0 0 0
2925 154 18 0.09 11.60454274760467 11.108789083850779 17.285441492006825 1 -1 1
331 18 8 0.09 11.79643830915222 11.602449899009127 21.991424339604336 0 0 0
5626 297 2 -0.191 2.678986849822372 11.826606161761541 16.804321554517 0 0 0
3585 189 13 0.09 12.345307746422346 5.029973323137133 15.961302077910096 0 2 1
485 26 10 0.09 2.6521036759184113 10.406415237132798 12.873344751861895 0 0 0
5260 277 16 0.09 9.527665996417582 15.829726487792804 21.62668539914163 0 0 0
2702 143 4 0.157 4.8482884478906545 6.104828547695898 27.584285480060007 0 2 -1
2701 143 3 -0.201 4.693866845900585 6.009854911772539 26.066356623588685 0 2 -1
2709 143 11 0.09 6.801721538373468 5.624663844143951 25.65969608782267 0 2 -1
3658 193 10 0.09 9.047275982651392 8.769323045913612 30.824402520920074 0 1 -1
2711 143 13 0.09 4.691915414902093 7.0047030591890325 25.527040787310412 0 2 -1
2712 143 14 0.09 3.979174386975046 6.607818921351811 28.01064633873581 0 2 -1
2705 143 7 -0.649 5.9504161403896525 6.8688609332492305 27.970791680400556 0 2 -1
2717 143 19 0.42 6.285601130032774 7.1673638050357935 27.134430452832916 0 2 -1
3662 193 14 0.09 6.041474896038537 5.649017205520608 31.36379912038595 0 1 -1
3996 211 6 -0.191 4.838479482946591 9.053818637001878 23.13408991017557 0 1 -1
6034 318 11 0.09 8.964593913692038 6.124541405435547 24.71681750098373 1 0 -1
6025 318 2 -0.191 9.770187979894448 6.386440928755981 25.553823098451637 1 0 -1
519 28 6 -0.191 3.806282801612608 3.0775042629832616 22.95311057384912 0 1 1
3002 158 19 0.42 3.4348251879406657 8.748851216441711 28.7845986030923 1 0 1
2714 143 16 0.09 5.101737153669262 4.64894024947813 29.304939978245486 0 2 -1
2716 143 18 0.09 6.892639304829487 4.336339399175465 27.82082354258709 0 2 -1
2703 143 5 -0.201 4.87792826863402 4.665719459913847 28.247347378490502 0 2 -1
530 28 17 0.09 4.750798272179829 3.031541341064027 23.539665826862933 0 1 1
2704 143 6 -0.191 5.929265993237006 3.800117486027351 27.58519633478724 0 2 -1
2700 143 2 -0.191 5.817665884552866 5.189694628921299 25.469688932432728 0 2 -1
90 5 14 0.09 10.932896389447821 15.074812874767348 27.670829444328458 0 0 1
3650 193 2 -0.191 8.052245186202972 8.572806149155118 31.231956678232397 0 1 -1
6036 318 13 0.09 8.345757507952758 6.231576491850394 27.324648340291283 1 0 -1
3543 187 9 0.09 9.039089576489483 3.8528527143396216 30.104901480486184 0 1 0
6030 318 7 -0.649 7.434605792145016 8.285937724230696 25.99525855130913 1 0 -1
6026 318 3 -0.201 9.160460613452623 6.882237827261555 26.84699530381766 1 0 -1
2713 143 15 0.09 3.8318768202772993 4.276020916016207 28.16331455455068 0 2 -1
6042 318 19 0.42 7.744751762485746 8.331609240762596 25.04773798594138 1 0 -1
6035 318 12 0.09 9.99906084560395 7.05007491720527 27.570157360016392 1 0 -1
2987 158 4 0.157 2.9206814261429903 10.527318096059343 28.306868224473035 1 0 1
2706 143 8 0.09 6.645913075937178 3.1728310096127315 25.646909988755542 0 2 -1
6027 318 4 0.157 8.639064726660244 8.306914408379868 26.730805372906804 1 0 -1
6037 318 14 0.09 8.380538539131164 8.557211365173618 27.776881623367654 1 0 -1
3535 187 1 -0.134 10.023902227172613 4.087612325049165 29.591087206946888 0 1 0
2710 143 12 0.09 3.744445689982446 5.468513577097735 25.815903014419323 0 2 -1
6029 318 6 -0.191 10.263379301506513 8.77769978314914 24.786804148178145 1 0 -1
6024 318 1 -0.134 10.805477683977207 7.33645751816469 24.94204250024831 1 0 -1
6041 318 18 0.09 9.523347080541441 8.816430163896886 23.9723370723342 1 0 -1
2990 158 7 -0.649 2.715115413798113 9.145814016623094 28.286528923949426 1 0 1
3660 193 12 0.09 8.335318477495953 6.352681078195287 31.391872241772187 0 1 -1
6028 318 5 -0.201 9.649600509009662 9.271651766969992 26.129647268993903 1 0 -1
4008 211 18 0.09 4.300641490634026 9.636913564135927 23.890779013011556 0 1 -1
78 5 2 -0.191 9.691328451624079 15.753709483046293 24.44585643571917 0 0 1
3661 193 13 0.09 7.619888917043253 7.0115909487450585 29.787429189862415 0 1 -1
4007 211 17 0.09 5.63881215703319 8.52087643824812 23.761578295058168 0 1 -1
3540 187 6 -0.191 9.88495042625346 3.738474593227389 28.143837719785076 0 1 0
95 5 19 0.42 12.184349950652786 15.089529893481457 25.19060202353084 0 0 1
3659 193 11 0.09 7.360873754003732 9.285391639402357 30.757618006754264 0 1 -1
2699 143 1 -0.134 5.784734489997998 3.7742831999826585 26.054099983218638 0 2 -1
2996 158 13 0.09 3.656259893583988 10.43441929577949 30.42617356364717 1 0 1
2994 158 11 0.09 5.307046527837447 9.226592794203771 29.018673515794557 1 0 1
6033 318 10 0.09 10.287722955449242 5.39549476218424 25.761507239144645 1 0 -1
2998 158 15 0.09 3.492591411235709 12.112523843299275 26.932292204472812 1 0 1
3542 187 8 0.09 10.21884252396503 5.212132803131373 29.636415874042697 0 1 0
3551 187 17 0.09 9.000467805244881 4.204822068199791 27.600377992424864 0 1 0
2879 152 10 0.09 8.012749188849376 4.574569703763469 23.051458772233083 0 0 1
3754 198 11 0.09 2.748767113481259 4.968711409650512 31.75366369207358 1 -1 -1
3651 193 3 -0.201 7.6742044941867835 7.104313482018461 30.914676351291085 0 1 -1
2708 143 10 0.09 5.69942930118928 5.123076370968197 24.38051216851802 0 2 -1
3652 193 4 0.157 6.305729070853854 6.709247847275608 31.475298584989474 0 1 -1
2156 114 9 0.09 5.997741443847131 2.7139201229907104 30.75893942746551 0 0 0
2986 158 3 -0.201 3.9870585827202234 10.834835949407408 29.44697413572007 1 0 1
3552 187 18 0.09 10.70933144908293 4.1866338022592995 27.647072389711717 0 1 0
6032 318 9 0.09 11.709978277249212 7.4185748890310865 25.570073261189115 1 0 -1
2009 106 14 0.09 11.854255640999273 7.2330345730338825 30.820606496128764 0 1 0
83 5 7 -0.649 12.301595265816237 15.105253010612765 26.150710421099372 0 0 1
6031 318 8 0.09 11.078662494049935 6.9001502811351205 24.005012398792868 1 0 -1
3180 168 7 -0.649 8.207483759343134 13.92236913206414 29.046905638616863 0 0 1
4825 254 18 0.09 5.5122206857887805 13.707698321443239 32.368331234433825 0 0 -1
6039 318 16 0.09 9.340828241559272 10.32589791918227 26.00503473725075 1 0 -1
3187 168 14 0.09 7.082738441765316 12.923519297219098 30.58894653241627 0 0 1
6038 318 15 0.09 10.55356264083871 9.316048279687543 26.816300632861438 1 0 -1
3191 168 18 0.09 10.363849777097386 14.950195959250875 30.10684905919152 0 0 1