LAMMPS data file via write_data, version 29 Aug 2024, timestep = 1000000, units = real

6655 atoms
5 atom types
5324 bonds
4 bond types
3993 angles
3 angle types
2662 dihedrals
2 dihedral types

5.382163121894703 55.15023687817454 xlo xhi
7.720527732637638 54.56899226735688 ylo yhi
5.9621610267715255 53.46263897322251 zlo zhi

Masses

1 12.011
2 12.011
3 15.999
4 1.008
5 1.008

Pair Coeffs # lj/charmmfsw/coul/long

1 0.1032 3.55023 0.1032 3.55023
2 0.167 3.27851 0.167 3.27851
3 0.192101 3.14487 0.192101 3.14487
4 0.009001 1.55907 0.009001 1.55907
5 0.045999 0.400014 0.045999 0.400014

Bond Coeffs # harmonic

1 980 1.22
2 410 1.465
3 426 1.07
4 545 0.96

Angle Coeffs # charmm

1 11 180 0 0
2 8 180 0 0
3 64.99 98.89 0 0

Dihedral Coeffs # charmmfsw

1 0 1 180 1
2 0 1 180 1

Atoms # full

1562 313 2 0.117 8.45645112774768 8.448504964296571 12.088285818008734 -3 1 4
4380 876 5 0.328 9.315294814523472 14.736000353526904 8.6919142359549 -2 4 3
1987 398 2 0.117 13.45367828178032 15.837061726576657 13.241713172434562 -2 -1 0
1988 398 3 -0.325 14.692825615176572 16.071948474995576 12.522758998985372 -2 -1 0
1986 398 1 -0.41 12.457395079664828 15.443540157101086 13.814552130298885 -2 -1 0
1989 398 4 0.29 11.660363374471686 15.42140591775599 14.522795518984497 -2 -1 0
309 62 4 0.29 13.114682704330386 14.852648545837006 10.178335111380228 2 2 1
1990 398 5 0.328 14.644022706797465 15.311816166058275 11.994440658270918 -2 -1 0
5096 1020 1 -0.41 16.76829761482753 13.421091273891587 11.535332967813183 2 1 0
5624 1125 4 0.29 12.64791040507665 13.225099773945772 15.14592334674617 4 -5 -1
1894 379 4 0.29 16.381023836053 9.40673142719659 6.703058997110486 -1 1 -2
31 7 1 -0.41 7.800185049806252 11.342270258261847 14.359823406589252 3 -3 -2
32 7 2 0.117 6.813297381810702 11.993935928577176 14.085088628065812 3 -3 -2
34 7 4 0.29 8.420819979205826 10.489896675539164 14.545979458562998 3 -3 -2
5415 1083 5 0.328 5.8104675673840145 16.598846995150225 13.457610041604257 2 0 -2
1561 313 1 -0.41 7.745787595397426 9.202079616355308 11.442698536626413 -3 1 4
1564 313 4 0.29 7.15021166742546 9.818207643192796 10.866510308516222 -3 1 4
4588 918 3 -0.325 16.5347793114933 23.093619488277106 10.14889020073634 1 -4 1
542 109 2 0.117 16.24308258948232 9.737487166671915 12.510423494051825 3 -3 3
781 157 1 -0.41 15.446987610382514 13.82683212301087 7.568843164428927 0 3 4
5000 1000 5 0.328 12.960940787103949 8.583431338773282 9.735005202221686 4 -2 3
5280 1056 5 0.328 7.6166751620037685 19.27757953043787 7.308381901159434 -1 -4 2
541 109 1 -0.41 16.229664443555343 8.667821121976496 13.067592983784223 3 -3 3
5621 1125 1 -0.41 12.390538337496452 12.287285218347558 14.598137274043498 4 -5 -1
4379 876 4 0.29 7.539788570986115 11.782825699687361 7.28589642627826 -2 4 3
5623 1125 3 -0.325 12.731579450811237 9.845395719828248 13.525308345967886 4 -5 -1
306 62 1 -0.41 12.990359016873402 13.780364060891113 10.390857782969066 2 2 1
5622 1125 2 0.117 12.516567773147525 11.160573607604588 14.146745281718735 4 -5 -1
6189 1238 4 0.29 7.513186206461981 8.139069547343057 17.321914106921216 -1 3 4
5135 1027 5 0.328 15.118839207632863 14.962166929064981 16.094645146921494 3 -2 -1
543 109 3 -0.325 15.896896198228502 10.801586378288501 11.591476095916057 3 -3 3
784 157 4 0.29 14.523130537956163 13.425164450195314 7.920071002909576 0 3 4
5077 1016 2 0.117 5.849390096639702 8.945713591056837 8.037760455570819 -6 -1 4
307 62 2 0.117 12.82881428170356 12.626785105811415 10.712189058499552 2 2 1
1793 359 3 -0.325 14.15362538939328 9.909464203542782 16.94606001206072 -2 3 -2
5076 1016 1 -0.41 7.01671496620518 8.966294332554291 7.765438092719654 -6 -1 4
5079 1016 4 0.29 8.053078796602694 8.861425813631387 7.926175608027892 -6 -1 4
545 109 5 0.328 16.57982805648882 11.421990453074779 11.949171989168454 3 -3 3
2983 597 3 -0.325 11.940375262888164 10.022707749628651 7.314005672900618 -2 4 2
6187 1238 2 0.117 9.239388040560058 8.260382037745266 16.007684809698787 -1 3 4
308 62 3 -0.325 12.74162250685222 11.210755213233051 10.770865045664237 2 2 1
782 157 2 0.117 16.582544977049466 14.23009089060962 7.373655575415931 0 3 4
310 62 5 0.328 13.65165246531586 11.065387682697102 11.073612275226914 2 2 1
4377 876 2 0.117 7.716667873514156 13.819369345701315 8.342730900168267 -2 4 3
4378 876 3 -0.325 8.385514197586996 15.055003969774763 8.613803607206112 -2 4 3
1372 275 2 0.117 9.144731671479438 13.571150227209962 11.962453601872065 -1 3 2
3362 673 2 0.117 15.194396322969212 22.692250038530364 17.634453860297057 -3 1 1
1371 275 1 -0.41 8.746603374118964 14.669529314132548 12.136398825771815 -1 3 2
4833 967 3 -0.325 6.654938796915737 16.89809162259172 10.921331536945667 1 -1 0
2981 597 1 -0.41 10.504148049952127 9.432347892020768 9.363757884957908 -2 4 2
2982 597 2 0.117 11.094242713915797 9.499108107536301 8.30391273507497 -2 4 2
1489 298 4 0.29 17.27717384158933 9.438503169558441 9.018354704765207 -3 3 -4
4294 859 4 0.29 12.018414310877306 18.120593437802484 10.021938210690667 2 0 6
5133 1027 3 -0.325 14.559789033511485 14.176314532980442 16.185375435147396 3 -2 -1
5131 1027 1 -0.41 16.30058623799099 12.1860461377537 15.648608985112823 3 -2 -1
5625 1125 5 0.328 12.386780145467135 10.075697169837268 12.673326317879088 4 -5 -1
4295 859 5 0.328 9.908238285199088 17.13358641086805 6.934934791781535 2 0 6
5134 1027 4 0.29 17.135922606894667 11.571380545131037 15.353098650974443 3 -2 -1
6025 1205 5 0.328 15.577785198016807 17.452548078027235 15.743032625543883 -5 -1 3
4376 876 1 -0.41 7.479456855537508 12.761475797258761 7.758722253219821 -2 4 3
2284 457 4 0.29 10.893158610031069 11.095712933110356 17.272438494343625 -1 0 2
1375 275 5 0.328 10.56006435838372 12.371117564314938 11.87548521768963 -1 3 2
1373 275 3 -0.325 9.628994910046503 12.274955164762922 11.67502911883032 -1 3 2
6188 1238 3 -0.325 10.242474815107801 8.953546850639992 15.156957421980126 -1 3 4
6186 1238 1 -0.41 8.23252638817893 7.926086226780011 16.6207789124147 -1 3 4
5898 1180 3 -0.325 6.171691680209179 21.212255980713465 14.304036895828986 5 1 1
2984 597 4 0.29 9.685843871140637 9.479024416591814 10.029116797999595 -2 4 2
5132 1027 2 0.117 15.559551328933201 13.10468328330067 15.851475912765984 3 -2 -1
648 130 3 -0.325 6.221675675644627 12.954789416210536 17.098517550378077 -1 -1 0
4111 823 1 -0.41 15.773898991089682 20.615603742955372 12.501200093301172 -3 -2 1
646 130 1 -0.41 7.509193908825469 15.21849640356217 17.42517567766466 -1 -1 0
4835 967 5 0.328 6.243124915853855 16.67080558455963 10.09685966384319 1 -1 0
4950 990 5 0.328 12.320078572453507 20.13544503549131 11.988951680508091 4 0 0
1486 298 1 -0.41 17.743220287258723 10.374286963683165 8.785210742161338 -3 3 -4
3500 700 5 0.328 16.733872758494236 17.07780795832419 10.944221614479204 -2 1 0
1143 229 3 -0.325 14.510070758917903 17.21052948012513 5.987413229311648 1 1 -3
4273 855 3 -0.325 17.420987087587335 20.323701079440475 15.88363105709728 -2 -3 5
4115 823 5 0.328 13.784498902265904 19.64620829500448 14.329905858231914 -3 -2 1
99 20 4 0.29 6.39411721226506 16.322212815264823 7.501169394296076 2 5 0
5897 1180 2 0.117 7.604092151315748 21.26601977924806 14.03893735743759 5 1 1
5097 1020 2 0.117 17.399387801755353 13.899053665529717 12.453802603267281 2 1 0
5899 1180 4 0.29 9.743615432128848 21.060863499832415 14.562207916849975 5 1 1
948 190 3 -0.325 15.59848797263918 16.947837209917786 8.77337819754037 3 0 0
647 130 2 0.117 6.7216311183002 14.278352524967032 17.317675626271885 -1 -1 0
1792 359 2 0.117 15.371455454273706 9.347288069185403 17.58677073295202 -2 3 -2
4948 990 3 -0.325 12.274673029524308 21.088035696208884 11.71347771620525 4 0 0
1892 379 2 0.117 14.68387746845642 7.914187013606447 6.817798129851113 -1 1 -2
950 190 5 0.328 15.374074413707529 17.00378042869258 7.794106716346507 3 0 0
4586 918 1 -0.41 14.404428773970695 22.762636872468896 8.580554768297342 1 -4 1
1374 275 4 0.29 8.295276664806547 15.600878549386854 12.38496461675398 -1 3 2
3186 638 1 -0.41 17.584546087269118 23.06735128415493 6.435832481046842 3 -4 2
4587 918 2 0.117 15.448577466751912 22.925577866058653 9.193093754861081 1 -4 1
4868 974 3 -0.325 10.778695713631645 22.58021755468904 7.552188261449101 0 -2 -1
5412 1083 2 0.117 6.8953873295486385 17.110138649323876 14.824394769049862 2 0 -2
4870 974 5 0.328 10.02156288231448 22.016604424649227 7.671954652995993 0 -2 -1
6332 1267 2 0.117 6.931632043526441 21.508100978361842 6.189245544829773 -1 -1 -1
5411 1083 1 -0.41 7.091084639211447 18.171432472006657 15.392498444920925 2 0 -2
4946 990 1 -0.41 12.566213478826857 21.664149109329355 14.286835176300816 4 0 0
4345 869 5 0.328 8.985882711553334 18.081815769320045 12.307924600656682 1 2 0
4947 990 2 0.117 12.29120394904995 21.550089935700008 13.10528341823364 4 0 0
5414 1083 4 0.29 7.348258741165081 19.23483402418507 15.402287443888566 2 0 -2
5896 1180 1 -0.41 8.827396624827418 21.0986538920442 14.061294289070126 5 1 1
4114 823 4 0.29 16.016521436312367 20.956656959677247 11.514326855565653 -3 -2 1
3498 700 3 -0.325 17.513213359731804 17.168147764700166 11.446390470176011 -2 1 0
3844 769 4 0.29 6.281546718164826 20.223398400386124 9.628305636673666 2 1 4
4292 859 2 0.117 11.387204758087037 17.381105858578568 7.95425316509808 2 0 6
949 190 4 0.29 14.672700970150856 20.407468521577528 9.638529838326596 3 0 0
4113 823 3 -0.325 14.543407321911058 19.088794503016096 14.28836258173762 -3 -2 1
649 130 4 0.29 8.020285741967113 16.137898543692692 17.510605978354327 -1 -1 0
4866 974 1 -0.41 12.223879875270386 20.594215939088627 6.547795075653041 0 -2 -1
6023 1205 3 -0.325 15.785861919683253 16.808793264555675 16.413835315198327 -5 -1 3
6022 1205 2 0.117 15.649222133386802 17.746355014849396 17.542079254485856 -5 -1 3
5279 1056 4 0.29 8.924417807768211 20.650754978878876 10.636838061098238 -1 -4 2
3365 673 5 0.328 15.269887747591598 21.390805548923865 16.20666900173314 -3 1 1
4867 974 2 0.117 11.701764715326032 21.559958433449914 7.086169927917726 0 -2 -1
4353 871 3 -0.325 11.83449115766886 19.283842149433312 17.15993074583286 -3 0 1
947 190 2 0.117 15.244174788882775 18.318123054880818 9.13002151067731 3 0 0
4352 871 2 0.117 11.096833413834302 20.49338835646107 17.340588853125375 -3 0 1
5277 1056 2 0.117 8.778657071079177 19.639149232368602 8.609675753592171 -1 -4 2
946 190 1 -0.41 14.838839698988677 19.380839613195402 9.480590384570267 3 0 0
4344 869 4 0.29 11.826264321987066 18.627789842391195 15.027400740062218 1 2 0
4343 869 3 -0.325 9.807946221416426 17.72438114997062 12.085051446061719 1 2 0
4589 918 4 0.29 13.544188758767321 22.32728600225588 8.137914327077185 1 -4 1
5276 1056 1 -0.41 8.873375948487558 20.334306128137275 9.654715887704851 -1 -4 2
4341 869 1 -0.41 11.29348376257462 18.534581654089543 14.081108499943312 1 2 0
1795 359 5 0.328 14.420827770056158 9.956101878629983 15.990123867924362 -2 3 -2
4293 859 3 -0.325 10.814262224188685 17.113703037646033 6.610570571480466 2 0 6
4112 823 2 0.117 15.258479947815902 19.82245401290016 13.222563786333096 -3 -2 1
4291 859 1 -0.41 11.699465848820338 17.625109395361413 9.128825218115445 2 0 6
5278 1056 3 -0.325 8.35747330938519 18.735638755005187 7.558085508966486 -1 -4 2
4342 869 2 0.117 10.566014504192333 18.28635915956966 13.16217619283146 1 2 0
4949 990 4 0.29 12.395245852890405 21.78032145234853 15.343638661775957 4 0 0
3363 673 3 -0.325 14.529645654613747 21.83608608847904 16.64593405234477 -3 1 1
3841 769 1 -0.41 5.593563918021872 20.993356820775197 9.688310800796653 2 1 4
4271 855 1 -0.41 17.79848582079729 22.806450030924104 15.039567024204969 -2 -3 5
2281 457 1 -0.41 10.0240483113797 11.432590413054827 17.700951505251233 -1 0 2
4351 871 1 -0.41 10.189031348520043 21.29756692186041 17.576620927793716 -3 0 1
5900 1180 5 0.328 5.974376792527005 21.93171875251693 13.676079737379956 5 1 1
650 130 5 0.328 6.099997091599048 13.027469694438812 16.179660403145576 -1 -1 0
4998 1000 3 -0.325 13.68931372168522 8.009338383786098 9.798402601764586 4 -2 3
6333 1267 3 -0.325 5.786783388602304 20.65787711751817 6.311275818620521 -1 -1 -1
2985 597 5 0.328 12.507916114607045 9.25505786448021 7.29146135002352 -2 4 2
4559 912 4 0.29 17.005972965437984 11.657685234082173 6.17449453329284 0 1 1
4832 967 2 0.117 5.760938851088169 17.99952974483645 11.352635992767395 1 -1 0
35 7 5 0.328 6.091205531833207 13.661077722373811 13.775044817883494 3 -3 -2
96 20 1 -0.41 5.536490636425022 16.89527269801517 7.817054333492681 2 5 0
6190 1238 5 0.328 10.030516955218026 8.429822245213185 14.35801674894588 -1 3 4
5099 1020 4 0.29 15.991790204266215 13.078612073897583 10.915303534516056 2 1 0
5413 1083 3 -0.325 6.42451650040895 16.01569709031878 13.912141751653074 2 0 -2
33 7 3 -0.325 5.611505940228094 12.846254399932505 13.896435649347017 3 -3 -2
4272 855 2 0.117 17.524629814534308 21.68981623916022 15.449885270925062 -2 -3 5
1891 379 1 -0.41 15.560440973266266 8.743596690044072 6.6793123614400995 -1 1 -2
1916 384 1 -0.41 15.338836478022992 9.894396352717227 22.94733825902386 1 0 2
2412 483 2 0.117 7.1984556215459605 18.982711140728806 26.617298618729276 -2 -2 2
965 193 5 0.328 9.959257036574083 12.03421046788614 21.46614010979475 2 0 -2
2775 555 5 0.328 16.74668644464942 12.670572662732344 28.25578012953188 -4 2 -1
5976 1196 1 -0.41 7.725206294720897 16.596259659874878 22.607092434445786 0 2 -2
1918 384 3 -0.325 14.058559334406484 11.850074030132449 24.24631514614963 1 0 2
2283 457 3 -0.325 8.093043882117854 11.668685435074606 19.426047711545706 -1 0 2
1794 359 4 0.29 17.087350891597403 8.092527036557843 18.469386963539236 -2 3 -2
2285 457 5 0.328 7.578700367605414 12.382703554116777 19.091434177295323 -1 0 2
6192 1239 2 0.117 12.994187579790209 13.138458775966432 19.196380943286087 0 -1 -1
1917 384 2 0.117 14.615892627900958 10.803568246712349 23.376321574600762 1 0 2
5980 1196 5 0.328 7.968817317031279 14.303251178716211 20.862994555668216 0 2 -2
6191 1239 1 -0.41 12.288080295479269 14.095735153192573 19.457655769745273 0 -1 -1
3087 618 2 0.117 5.918876027232789 10.724765072108394 26.187347983120027 0 5 0
5978 1196 3 -0.325 8.810348955791033 14.674564195045756 21.086005444380202 0 2 -2
5977 1196 2 0.117 8.259689852592567 15.74617737383771 21.938141094686216 0 2 -2
2178 436 3 -0.325 13.238649705824985 21.632732746023976 24.660216304182455 2 1 4
5979 1196 4 0.29 7.300667858707089 17.38810787324197 23.092668527450748 0 2 -2
1920 384 5 0.328 13.983360443405852 12.63485115293427 23.659534561749034 1 0 2
2282 457 2 0.117 9.030827202906845 11.561843602640744 18.381811660479073 -1 0 2
3088 618 3 -0.325 7.01604171381176 11.520078017580294 26.74340871606597 0 5 0
4355 871 5 0.328 12.323925137627072 19.271256293667957 17.98628562727717 -3 0 1
4695 939 5 0.328 12.089738056376753 23.146684721390873 22.765094135995053 -3 1 1
3090 618 5 0.328 6.629356452567412 12.373343891589764 27.11205972031562 0 5 0
3769 754 4 0.29 14.50748086650967 15.156542442257214 28.375030046187234 2 0 -1
3766 754 1 -0.41 13.808724659896345 15.167765849824937 27.584151173806085 2 0 -1
5123 1025 3 -0.325 16.758045842262476 15.581529839709873 21.86774065721223 -2 -3 -1
5125 1025 5 0.328 17.50438844279402 15.010309745963998 21.600850919429092 -2 -3 -1
4179 836 4 0.29 9.279811502560744 9.895777052028311 29.163604484526342 1 1 -1
5124 1025 4 0.29 16.831242341759395 13.815070714363344 25.026610705063693 -2 -3 -1
3770 754 5 0.328 11.93436762733415 15.188221310777234 25.212569641268665 2 0 -1
4372 875 2 0.117 15.461461941494756 10.089655980816048 27.645434298670036 3 3 3
4371 875 1 -0.41 15.772879976089818 8.895602016790862 27.707738739199318 3 3 3
6195 1239 5 0.328 13.666458169272246 11.57821016057298 18.398975734290683 0 -1 -1
6193 1239 3 -0.325 14.072156752795335 12.1684192690541 19.088724392020975 0 -1 -1
3767 754 2 0.117 12.842411196091536 15.283823480640477 26.81864094719141 2 0 -1
963 193 3 -0.325 10.869433196835946 12.056876456866085 21.850007109544983 2 0 -2
5127 1026 2 0.117 11.711594668123002 8.146269648617558 20.09354837178637 -1 0 -2
3768 754 3 -0.325 11.554596986573683 15.197808877883158 26.125629715958276 2 0 -1
1919 384 4 0.29 16.097685547380173 9.142543224813778 22.69380744731036 1 0 2
962 193 2 0.117 10.49844245273221 12.47485418645671 23.213345367523115 2 0 -2
960 192 5 0.328 15.380173642790014 7.901324736449545 23.829871964315814 -4 -2 1
5408 1082 3 -0.325 13.31736438726318 14.17991064968362 22.547536188515377 0 1 2
6579 1316 4 0.29 6.648265092549177 9.141275189777089 28.012235244692476 0 1 -2
5410 1082 5 0.328 13.169969325823487 14.436440391045814 21.618766242963034 0 1 2
4373 875 3 -0.325 15.140099829456133 11.51984868247151 27.484208596794993 3 3 3
153 31 3 -0.325 7.868233949712514 14.806549385202725 25.884339424849117 0 3 2
1164 233 4 0.29 9.719806897429706 21.184813683787567 29.66245027857833 -4 0 -1
964 193 4 0.29 9.541169846553732 12.917509287548558 25.254317509719467 2 0 -2
1221 245 1 -0.41 9.289558505308975 8.184446270277652 25.49665485701813 1 -5 -1
1225 245 5 0.328 10.558437032784557 8.821922809818053 22.80073284279056 1 -5 -1
4374 875 4 0.29 16.080163412907538 7.873035437309853 27.66373786574308 3 3 3
5121 1025 1 -0.41 16.479903366702732 14.234730563029036 24.125617884054154 -2 -3 -1
5153 1031 3 -0.325 6.9947340201568045 22.84692202860023 28.851347183252862 1 2 0
2873 575 3 -0.325 15.689023661064784 14.741499091217342 19.286196141445053 3 1 0
2014 403 4 0.29 8.594845689683114 15.399430587833972 28.228629850763536 1 4 -1
896 180 1 -0.41 17.60274629478033 11.82989299535148 21.31993521047533 5 3 3
2872 575 2 0.117 16.996554471057493 14.500703901630509 18.806857689992004 3 1 0
6576 1316 1 -0.41 6.317367990787551 9.152438689741821 29.03212358725667 0 1 -2
4375 875 5 0.328 14.787825542023912 11.440396101810316 26.56954657199733 3 3 3
5122 1025 2 0.117 16.325895018934464 14.726479034018674 22.99843803795278 -2 -3 -1
899 180 4 0.29 16.863646507999835 11.104664660623902 21.013133180000672 5 3 3
2773 555 3 -0.325 17.1664279346819 13.547164696003705 28.266158696875518 -4 2 -1
961 193 1 -0.41 10.05895240163516 12.564781821108687 24.358723080719564 2 0 -2
4178 836 3 -0.325 12.009411678978438 12.45605057820634 28.50517241485082 1 1 -1
155 31 5 0.328 8.000039513094602 15.782148732003332 25.9191978187258 0 3 2
1955 391 5 0.328 17.297402822421006 11.390253277886089 24.412407377058695 4 -1 -3
2414 483 4 0.29 6.6307395024712665 21.11326211811504 27.089389656932653 -2 -2 2
5314 1063 4 0.29 6.625308086574051 19.335244902384975 19.181962391868545 0 0 7
152 31 2 0.117 6.59998482526696 14.753798699309518 26.581383565498992 0 3 2
2176 436 1 -0.41 15.528506796956728 20.412329491502156 23.857396615766575 2 1 4
6194 1239 4 0.29 11.559698451824069 14.774612764269705 19.857889558470507 0 -1 -1
1223 245 3 -0.325 9.577418077220948 8.782083045179128 22.878476303957914 1 -5 -1
4694 939 4 0.29 10.183725238401731 20.254919818685032 21.391442212438374 -3 1 1
1163 233 3 -0.325 11.008995443556131 23.189869697862207 26.82991447633564 -4 0 -1
4180 836 5 0.328 11.841459337220837 12.519114944529083 27.551436295431795 1 1 -1
5130 1026 5 0.328 10.19331403965607 7.922679381483048 18.9597693652605 -1 0 -2
2875 575 5 0.328 15.209387759675264 13.974628891488969 18.973234312052107 3 1 0
5103 1021 3 -0.325 17.102531152462443 17.670216664842293 25.92420547179202 -5 -5 1
5407 1082 2 0.117 12.953720243151313 15.43149350035973 23.095959838296746 0 1 2
5126 1026 1 -0.41 12.25620233895176 9.041861831500153 20.70871110309089 -1 0 -2
4176 836 1 -0.41 10.096673843841916 10.583056760991578 29.02500359984171 1 1 -1
6021 1205 1 -0.41 15.448935335714713 18.48810635623776 18.516493961797522 -5 -1 3
2413 483 3 -0.325 7.275971271967361 17.700782833295253 25.921535867548286 -2 -2 2
2029 406 4 0.29 10.344848837012126 16.63942061607041 20.482270497322652 1 -3 4
1524 305 4 0.29 10.907360722814364 19.028393286611696 25.319289271609833 -4 -3 1
1266 254 1 -0.41 5.855391225969469 21.762715930869685 23.248802174327203 0 3 -1
5105 1021 5 0.328 16.25243067823377 17.399833539439527 25.506202616549686 -5 -5 1
2028 406 3 -0.325 12.912405052738816 19.25223708620738 20.49665634949467 1 -3 4
5155 1031 5 0.328 6.5016575482175085 22.512905914210755 29.607281054581104 1 2 0
1222 245 2 0.117 9.498896669306617 8.440275185414835 24.33304369198155 1 -5 -1
2415 483 5 0.328 6.376964649982608 17.64783977486791 25.57195826897513 -2 -2 2
1525 305 5 0.328 9.273265888163301 17.417020732459015 28.543589329794887 -4 -3 1
1522 305 2 0.117 10.552079676177362 18.288668260398175 27.45989780402342 -4 -3 1
1161 233 1 -0.41 9.96917855128185 21.825411812703223 28.822824110023 -4 0 -1
2180 436 5 0.328 13.531648880895752 22.369559087833515 25.241603895059544 2 1 4
6024 1205 4 0.29 15.45033692238825 19.106137446286432 19.400417946745304 -5 -1 3
2030 406 5 0.328 12.783442766515575 19.24238995360066 21.463646097425297 1 -3 4
2411 483 1 -0.41 6.950036267260298 20.101512522955034 27.00092618134302 -2 -2 2
1019 204 4 0.29 13.163058061882403 18.232862685711602 27.654910424088207 3 0 2
1017 204 2 0.117 14.766419509218471 19.7198471275666 28.441886821495345 3 0 2
1791 359 1 -0.41 16.231434636153857 8.642851568545595 18.141073425163913 -2 3 -2
1267 254 2 0.117 6.864434423604129 21.968137933189773 23.85081537813638 0 3 -1
2027 406 2 0.117 11.933336901404076 18.21040682968436 20.3102000577981 1 -3 4
5409 1082 4 0.29 12.035838434399743 17.4619658196724 23.536859121805037 0 1 2
1523 305 3 -0.325 10.103412288687721 17.783157357190724 28.76028062291694 -4 -3 1
1270 254 5 0.328 8.655839959114328 22.33046009342166 23.637722915086695 0 3 -1
4691 939 1 -0.41 10.302150480381734 21.291267740375147 21.707291426636928 -3 1 1
4177 836 2 0.117 10.977997997492162 11.418606150806063 28.826956995169464 1 1 -1
1521 305 1 -0.41 10.806981569203645 18.676340746442406 26.337376708611185 -4 -3 1
1018 204 3 -0.325 15.271868943379044 20.88525556809072 29.180907760689543 3 0 2
2026 406 1 -0.41 11.208868435065838 17.248890698218 20.284835987251036 1 -3 4
5311 1063 1 -0.41 5.836939809643732 18.721846236346543 19.44231107991177 0 0 7
2011 403 1 -0.41 8.17026443478394 15.579604669999863 29.140071349562213 1 4 -1
1016 204 1 -0.41 13.992505459354042 18.896473984708237 27.952175658365714 3 0 2
2179 436 4 0.29 16.44751565780455 19.930039169217178 23.737346623461402 2 1 4
151 31 1 -0.41 5.4702945496847954 14.715500445949358 27.086318786705018 0 3 2
2177 436 2 0.117 14.548809730629245 20.989529998795774 24.304951816660555 2 1 4
1268 254 3 -0.325 8.075348525934247 22.562435975405574 24.340512827230327 0 3 -1
1162 233 2 0.117 10.397363869404664 22.436152023089917 27.856447331738817 -4 0 -1
5129 1026 4 0.29 12.528587358036795 9.878942063744734 21.289660719437016 -1 0 -2
5406 1082 1 -0.41 12.52781818288126 16.506434175371226 23.491359508272357 0 1 2
4692 939 2 0.117 10.435488432495022 22.42166402528708 22.175133478013063 -3 1 1
2729 546 4 0.29 16.54990052810485 22.640436322332086 25.805363676659965 1 -1 -1
1953 391 3 -0.325 17.620986177898708 11.661429284134643 25.281264021445324 4 -1 -3
1224 245 4 0.29 8.735343444397785 7.969540694497545 26.373124303397052 1 -5 -1
3984 797 4 0.29 17.514036120941203 18.687382721313547 22.120572940299976 4 -2 5
4354 871 4 0.29 9.771217626228005 22.1678535048623 18.00661219580521 -3 0 1
3981 797 1 -0.41 17.82178476486994 19.29670254665791 21.23782364197372 4 -2 5
2453 491 3 -0.325 14.647214494056193 14.802198266953 36.05331086553195 6 0 -1
2087 418 2 0.117 13.29250239521483 14.02964120181845 40.857105153388126 -5 0 1
2800 560 5 0.328 9.621929434719156 10.961579924583585 33.05306391800767 -1 0 1
3557 712 2 0.117 16.48631300319333 16.621065356914787 41.32819982780879 6 2 -2
4978 996 3 -0.325 6.7760414114178875 9.187923041412523 39.42215676533252 1 -3 -4
2452 491 2 0.117 13.296817801621149 14.931657868084615 36.417956701218905 6 0 -1
2607 522 2 0.117 9.896841064913604 17.6788947307554 36.55097336830481 2 -2 1
2451 491 1 -0.41 12.162159306926366 14.960472752430483 36.85897665601644 6 0 -1
2041 409 1 -0.41 7.480693607408101 11.490012016959026 36.05893949148047 -1 0 1
3723 745 3 -0.325 17.698527022354252 11.77864580385189 39.275663437213616 -6 -3 3
4728 946 3 -0.325 11.679810778590234 10.50417909364933 34.40932825384803 3 3 1
2454 491 4 0.29 11.153347116621743 15.199360687147763 36.819017726653456 6 0 -1
4727 946 2 0.117 11.391385185075023 11.891914961860905 34.176559562483106 3 3 1
3856 772 1 -0.41 10.749415311247057 11.295821452178362 37.868769894215575 3 -2 -3
4980 996 5 0.328 7.257815673641004 8.818783596998044 40.14733559920078 1 -3 -4
3312 663 2 0.117 16.498030988209823 10.289143694173504 34.28308917832569 3 4 1
3315 663 5 0.328 15.178876001998376 10.218894037975979 35.32719142472614 3 4 1
4726 946 1 -0.41 11.039020892672939 12.988364037605535 33.871058053629994 3 3 1
2797 560 2 0.117 8.298910562745574 11.66361020166841 31.943963046159087 -1 0 1
3313 663 3 -0.325 15.105468509182971 10.287550187667156 34.38970304782757 3 4 1
1937 388 2 0.117 17.23698554731355 23.22170061781059 35.622268086001554 1 -5 -1
2798 560 3 -0.325 8.829924733491588 10.593834628271956 32.82000160252444 -1 0 1
3857 772 2 0.117 11.011969148423509 10.4299873655132 38.69954703980986 3 -2 -3
5384 1077 4 0.29 16.494214585020636 20.60551180660223 31.792243104947058 1 2 1
2086 418 1 -0.41 12.969785610277466 13.682488296412238 39.732045553659255 -5 0 1
4729 946 4 0.29 10.82988666829416 13.88574074387409 33.375672636282744 3 3 1
208 42 3 -0.325 10.291061002207694 22.57710532628854 33.62628630354716 3 -1 -2
4730 946 5 0.328 12.632518803257543 10.414109950856421 34.09591007426808 3 3 1
161 33 1 -0.41 13.945473191142776 12.738238796597255 31.41230145661274 -3 2 0
2649 530 4 0.29 6.442717643470025 13.944442563399923 40.13791839958033 1 1 -2
2796 560 1 -0.41 8.12547595300641 12.527381810746618 31.092800337347406 -1 0 1
3859 772 4 0.29 10.65824210001842 12.107949327904587 37.13161265761743 3 -2 -3
162 33 2 0.117 14.999832312944815 12.161274585752711 31.141483720405464 -3 2 0
4962 993 2 0.117 8.305054824622083 7.993526821122471 36.124343057943086 -4 0 0
165 33 5 0.328 16.155112829447624 10.766831585815163 31.18567974030597 -3 2 0
4963 993 3 -0.325 8.723944979092316 8.787749329505564 37.23353399673855 -4 0 0
3860 772 5 0.328 11.490618832872201 8.815828231154976 39.390152917746846 3 -2 -3
2455 491 5 0.328 15.028659878584138 15.507277666489248 36.579591942540205 6 0 -1
6443 1289 3 -0.325 9.81656044044708 21.649125746396283 37.68120488600533 0 -1 -2
3858 772 3 -0.325 11.139999717019293 9.606511686799768 39.88658933345122 3 -2 -3
2799 560 4 0.29 8.221579265511826 13.188297391030966 30.255004916998537 -1 0 1
2089 418 4 0.29 12.887389447894229 13.398401837273257 38.685502570267936 -5 0 1
4965 993 5 0.328 8.05538898532182 9.524803860992078 37.16077919648724 -4 0 0
6578 1316 3 -0.325 5.8450193942938435 9.925318015653078 31.545730117949272 0 1 -2
3725 745 5 0.328 16.97771457596367 11.123532287678715 39.11939985858908 -6 -3 3
5865 1173 5 0.328 11.622794007357925 16.42686704556646 29.842741001502752 4 0 -1
2042 409 2 0.117 6.291728612502115 11.419525924342746 36.340358408307935 -1 0 1
5862 1173 2 0.117 11.015627985555792 16.590761637463892 31.61458827652281 4 0 -1
2646 530 1 -0.41 5.757910130179658 13.163228323967973 39.84714995920318 1 1 -2
4977 996 2 0.117 6.272367919360788 7.847788234652378 38.95429384365242 1 -3 -4
2044 409 4 0.29 8.55868717708458 11.342719711991977 36.010962805656234 -1 0 1
3908 782 3 -0.325 6.636640038764372 17.688623040399467 36.0375108409237 -1 3 0
163 33 3 -0.325 16.393419669078497 11.717350172661881 31.10221891667592 -3 2 0
5381 1077 1 -0.41 16.021194395195668 21.59128662233661 32.059650036164456 1 2 1
3909 782 4 0.29 6.818226797284253 14.120054567172568 35.06933051308138 -1 3 0
1940 388 5 0.328 17.395183789802587 22.396482607047055 33.94887656151191 1 -5 -1
3560 712 5 0.328 17.02078780428962 17.062968601489096 39.691630603674696 6 2 -2
5863 1173 3 -0.325 12.124703142148155 16.29039647701201 30.65658482309453 4 0 -1
2610 522 5 0.328 9.456777224446023 17.297739161735905 38.3420557986915 2 -2 1
3113 623 3 -0.325 16.13450565611733 8.348136066435295 31.524296467817265 4 1 -3
3910 782 5 0.328 7.297532160790386 17.623805823191265 36.66021889901849 -1 3 0
3907 782 2 0.117 6.763697858207948 16.27014159463674 35.63256834930446 -1 3 0
5895 1179 5 0.328 15.647276067985318 17.810770702053702 34.26762255060815 0 1 -1
3906 782 1 -0.41 6.990658337548227 15.075354599412819 35.418486491413354 -1 3 0
207 42 2 0.117 9.137915138392781 23.115989252009108 32.799615563999325 3 -1 -2
4961 993 1 -0.41 7.874446062063582 7.787433970099624 35.01400531029257 -4 0 0
6577 1316 2 0.117 6.210175334453417 9.396178681757913 30.21797072921339 0 1 -2
1441 289 1 -0.41 17.518571805384866 8.102400361225062 40.21870326173356 5 5 1
164 33 4 0.29 12.884052141463432 12.886372990803869 31.21850577412212 -3 2 0
2012 403 2 0.117 7.415342818796409 15.847081587677193 30.051263539614233 1 4 -1
4431 887 1 -0.41 15.854372071161253 15.559814235126503 32.07036072956798 1 -1 4
4435 887 5 0.328 14.154551877458953 17.911305230206477 31.50713422312917 1 -1 4
5861 1173 1 -0.41 10.043271703120535 16.623970231388842 32.326984785735625 4 0 -1
2015 403 5 0.328 5.8570182264167965 15.67349136012129 31.080592573439667 1 4 -1
811 163 1 -0.41 7.871702981975515 19.291610625054872 31.6599998214659 -2 1 1
3115 623 5 0.328 16.78428037507424 8.375280698521676 32.254578473077245 4 1 -3
813 163 3 -0.325 7.588078718197876 20.59792239238256 33.974397964241774 -2 1 1
3311 663 1 -0.41 17.680783835523794 10.516775688375947 33.962446488394555 3 4 1
3794 759 4 0.29 15.394537620118681 20.089280131035295 39.08237748243363 1 2 -3
149 30 4 0.29 7.509621911290598 18.41545270788938 39.54499969387591 0 1 0
3112 623 2 0.117 14.944536490233618 8.105243313421182 32.260880556149054 4 1 -3
814 163 4 0.29 7.927360296254086 18.697936622127813 30.788637211030533 -2 1 1
812 163 2 0.117 7.795523333447328 19.84150550677633 32.736957698020476 -2 1 1
3791 759 1 -0.41 16.382486427822762 20.457394811819597 39.08378425727836 1 2 -3
4539 908 4 0.29 5.743666754477322 21.566827295157452 32.16787818957569 -1 -1 1