LAMMPS data file via write_data, version 29 Aug 2024, timestep = 1000000, units = real

6000 atoms
4 atom types
5000 bonds
3 bond types
7000 angles
3 angle types
3000 dihedrals
1 dihedral types

-0.4175585993770845 40.8123885993582 xlo xhi
-1.0182017585197904 40.06013175851983 ylo yhi
-0.9878279140766466 39.92605791404894 zlo zhi

Masses

1 1.008
2 1.008
3 12.011
4 15.999

Pair Coeffs # lj/charmmfsw/coul/long

1 0.024 2.38761 0.024 2.38761
2 0.046 0.400014 0.046 0.400014
3 0.078 3.65268 0.01 3.38542
4 0.1921 3.14487 0.1921 3.14487

Bond Coeffs # harmonic

1 322 1.111
2 428 1.42
3 545 0.96

Angle Coeffs # charmm

1 57.5 106 0 0
2 35.5 108.4 5.4 1.802
3 45.9 108.89 0 0

Dihedral Coeffs # charmmfsw

1 0.18 3 0 1

Atoms # full

3252 542 2 0.42 6.9417239477689705 3.109035337251923 -0.6347276863854785 0 1 -3
2629 439 3 -0.04 2.2270416741398273 5.628191628702351 0.05387983658336859 2 0 2
434 73 4 -0.65 2.43701768295899 8.812344978909598 4.527795848454771 -1 -2 1
2664 444 2 0.42 6.577541192734635 5.742249658199946 -0.42910319967498034 -3 -2 1
2632 439 1 0.09 1.972984230405213 4.586352736975582 0.441118241909201 2 0 2
2631 439 1 0.09 1.8978911111258285 6.330495767899496 0.8852266458078721 2 0 2
466 78 1 0.09 -0.3348746518234877 0.9832026395666453 12.310482035328766 -2 0 2
4195 700 3 -0.04 4.7605168430902705 4.039789224239341 2.552225947950854 -2 1 2
3248 542 4 -0.65 6.818419163227606 2.2037946331392946 -0.3610258744415934 0 1 -3
1433 239 1 0.09 -0.3453703448422771 1.424181548989329 4.072591263283113 -2 2 -1
4198 700 1 0.09 5.5211687728314045 3.2690702890810295 2.2927412558141524 -2 1 2
357 60 1 0.09 6.590047485041804 7.602179451375395 6.543712268991677 0 -1 4
2660 444 4 -0.65 7.022121436317519 4.9500308442501 -0.7582225533974987 -3 -2 1
4197 700 1 0.09 4.976062170544701 5.055947748105533 2.0642423233142395 -2 1 2
433 73 3 -0.04 3.118644978738922 7.722668830622421 5.074213359982749 -1 -2 1
3434 573 4 -0.65 7.005318050444819 -0.14109140827545175 1.4929851340752434 4 3 -1
4199 700 1 0.09 3.8486211287673537 3.7141284613996115 2.0154557063438707 -2 1 2
5086 848 1 0.09 0.754057094862447 -0.47590176020500585 5.572917491304026 1 1 0
4562 761 4 -0.65 5.795877715237865 7.518953444622454 0.013396348087289844 2 1 0
3433 573 3 -0.04 8.3515987387277 -0.04338578968948248 1.8985640425583306 4 3 -1
4196 700 4 -0.65 4.536923214346436 4.314805170426116 3.908186473418751 -2 1 2
1430 239 4 -0.65 0.2185283754782057 0.3606566645248417 2.2891367268429463 -2 2 -1
2633 439 1 0.09 3.362219974093588 5.704698619715189 -0.13367304782655542 2 0 2
4200 700 2 0.42 5.1197916039380456 5.087528005266049 4.138133017985827 -2 1 2
3281 547 1 0.09 0.4393958012072404 4.252496675233531 4.964547484536773 3 0 0
3438 573 2 0.42 6.897678363630295 0.658104256982045 0.9778909339360911 4 3 -1
3440 574 4 -0.65 9.79175459778233 4.686306771945528 2.9053746763099135 1 2 -3
3439 574 3 -0.04 8.523142549335741 4.761607200720883 2.3539185640604465 1 2 -3
4407 735 1 0.09 5.87608048657816 9.144153400130303 7.7085318615331655 2 1 -2
437 73 1 0.09 4.1413623603654495 8.008474506610476 5.314722352033013 -1 -2 1
4905 818 1 0.09 8.260431926897809 9.184431875470228 7.842111227342359 1 -1 -2
1675 280 3 -0.04 3.1760607362889073 5.846868612185569 11.428274747480899 0 -1 3
355 60 3 -0.04 6.8593208457506165 6.740443713912704 5.906417988701 0 -1 4
3441 574 1 0.09 7.736782805652702 5.168484009847106 3.0570676729232718 1 2 -3
1025 171 1 0.09 3.0440865183503956 1.3063433427593432 2.585793050674814 -1 3 0
4561 761 3 -0.04 5.674951676347873 7.931572041777358 1.4175692248030831 2 1 0
3443 574 1 0.09 8.203512161644667 3.808760022743706 1.9217567392680732 1 2 -3
1024 171 1 0.09 4.295173826250356 1.2011672146587347 1.2722620390197448 -1 3 0
436 73 1 0.09 3.0492202541532207 6.813419073318801 4.378318215033158 -1 -2 1
4377 730 1 0.09 0.48850164150246334 -0.20073650160031975 8.8929770507541 1 2 3
3280 547 1 0.09 0.031468969393063206 4.402765858605029 3.2138949612634633 3 0 0
3277 547 3 -0.04 0.8394651576151364 4.491309182486886 3.9470544938615557 3 0 0
3279 547 1 0.09 1.328314655597459 5.552505560767484 3.959163243375447 3 0 0
4563 761 1 0.09 5.232855685272203 8.94194450836334 1.404488661333553 2 1 0
3435 573 1 0.09 8.347128506015478 0.9541178073466619 2.334338190072807 4 3 -1
359 60 1 0.09 7.979921622492467 6.566805278847429 5.999064654613971 0 -1 4
4565 761 1 0.09 6.617270998765661 8.040905245229693 1.9818310431654824 2 1 0
3282 547 2 0.42 2.635931554090282 3.5987986616360432 3.7103329634188817 3 0 0
4566 761 2 0.42 5.058666048898967 7.9126637814628715 -0.5057757614564945 2 1 0
5070 845 2 0.42 1.4841465567781054 0.5564011614577238 -0.33018974699935366 2 -1 2
1026 171 2 0.42 2.0855465718282775 -0.5402197466846586 1.9333584259821737 -1 3 0
3278 547 4 -0.65 1.6716754415361055 3.406924741148127 3.631933077076398 3 0 0
360 60 2 0.42 6.7314902699250725 7.754102017329899 4.3552179511217375 0 -1 4
3436 573 1 0.09 8.643087655620377 -0.8661390295829681 2.640477945397679 4 3 -1
438 73 2 0.42 1.497542392903484 8.721160845308216 4.816780471178459 -1 -2 1
3324 554 2 0.42 7.7154066693684005 7.635073299150891 0.5469559640484598 -1 -1 -3
1669 279 3 -0.04 0.7025265202125786 8.799910976659973 10.383198926250572 -1 2 1
1672 279 1 0.09 1.7322810907369401 8.932210335820848 10.259528020516433 -1 2 1
3320 554 4 -0.65 8.644345130685467 7.949360923441489 0.8624866832272153 -1 -1 -3
5066 845 4 -0.65 0.5542138023968536 0.6795457872315698 -0.6703487662265843 2 -1 2
435 73 1 0.09 2.614523975185531 7.256029311809458 6.003651031888211 -1 -2 1
372 62 2 0.42 5.115012577826632 0.7093730994653962 12.105727335370418 1 1 1
2782 464 1 0.09 9.26589466468899 2.8079715709841095 6.946114418884105 0 -1 2
358 60 1 0.09 6.406999441239534 5.829210127935404 6.427983676576077 0 -1 4
356 60 4 -0.65 6.368049037376636 6.878082792998134 4.578187199677562 0 -1 4
2174 363 4 -0.65 9.33787855151062 -0.0821407815213121 9.669255864604109 1 1 1
1067 178 1 0.09 4.548387290368087 0.05220481736986171 5.640078657780789 2 2 0
1021 171 3 -0.04 3.6350730306554846 0.6032882209401869 1.900186248721755 -1 3 0
1678 280 1 0.09 4.198947249052021 6.036741339916344 10.98940001562901 0 -1 3
4564 761 1 0.09 4.974225505992435 7.271120051894675 1.913960368952453 2 1 0
1679 280 1 0.09 2.4257884649724817 6.360020104915888 10.767696295214758 0 -1 3
1066 178 1 0.09 4.529282167412336 1.5873708881034307 4.739971750907919 2 2 0
2177 363 1 0.09 8.997970252791564 1.717883936949132 10.434034593740831 1 1 1
5083 848 3 -0.04 1.6755386307693043 -0.9972456674896294 5.217311990285636 1 1 0
2783 464 1 0.09 8.266646692626617 2.504723081448564 5.535840851168241 0 -1 2
5414 903 4 -0.65 7.095088479216653 0.016151869709495337 7.917534894013773 0 -1 0
368 62 4 -0.65 5.004211046836681 -0.03869607035689704 11.484986999695144 1 1 1
371 62 1 0.09 4.949376045116036 1.2169624462764093 9.818141255997784 1 1 1
2692 449 1 0.09 6.539640595156858 3.0241936676676593 8.263538794216707 0 -2 3
465 78 1 0.09 1.4373150057410145 1.5081399027077835 12.333875351414592 -2 0 2
1064 178 4 -0.65 5.18471790402509 1.6329711291095421 6.749861121038278 2 2 0
5036 840 4 -0.65 6.894261915590881 5.399304657818348 12.03126166489774 1 1 -1
4405 735 3 -0.04 4.834764915560537 8.944304595891845 8.11363341531865 2 1 -2
2693 449 1 0.09 8.029180371556665 3.698366091096559 8.857767048577333 0 -2 3
3437 573 1 0.09 9.024211808908094 -0.15234142047738186 1.0216854521314493 4 3 -1
370 62 1 0.09 3.37460049020577 0.9261087129259129 10.772730246806354 1 1 1
4277 713 1 0.09 2.6857059742556046 5.286703340474628 7.842126047305616 2 0 0
2689 449 3 -0.04 6.909295654870257 3.6098021003327565 9.076101492672134 0 -2 3
1676 280 4 -0.65 2.9325344692278876 4.441149685185774 11.407708642627895 0 -1 3
4376 730 4 -0.65 1.0037047353708797 1.895663229078695 8.944846690984772 1 2 3
1063 178 3 -0.04 4.3618384048958045 1.1120710809490975 5.690687214113881 2 2 0
369 62 1 0.09 4.005372900115863 -0.27247319957796723 9.769667395940715 1 1 1
4378 730 1 0.09 -0.08945369497050548 0.8385912339325496 7.603678261829662 1 2 3
2781 464 1 0.09 8.930109574952642 1.0642105267700486 6.280528209354616 0 -1 2
4276 713 1 0.09 1.9559883224485781 3.8069404230927875 7.6129165106783905 2 0 0
4375 730 3 -0.04 0.7770971711580559 0.7036932473158906 8.25542686911862 1 2 3
367 62 3 -0.04 4.262335697074026 0.5171509835902943 10.416634250981952 1 1 1
4278 713 2 0.42 4.532807844585332 4.168685190040523 8.66552595145354 2 0 0
4380 730 2 0.42 1.9298126145560306 1.9547451909572664 9.210069016657895 1 2 3
2694 449 2 0.42 6.3888296588284 5.372458538863123 9.826168777185147 0 -2 3
5040 840 2 0.42 6.293408185992544 4.710873262764961 12.328622129030707 1 1 -1
5087 848 1 0.09 2.387030760982851 -0.28810133497432755 4.704247757134436 1 1 0
4379 730 1 0.09 1.7089140906837779 0.5014543463811978 7.618159230177875 1 2 3
4275 713 1 0.09 3.4303058074819828 4.298148864841467 6.568618492277538 2 0 0
1065 178 1 0.09 3.309278239524722 1.0999617292959578 6.002684082827857 2 2 0
1068 178 2 0.42 4.680516560344387 2.3792446959217823 7.143704413576803 2 2 0
1680 280 2 0.42 3.0808747171053508 4.2178544494544585 10.45422660897892 0 -1 3
4274 713 4 -0.65 3.7461614744763123 3.604199978197709 8.558129314458922 2 0 0
2779 464 3 -0.04 9.178744289807991 2.0913148827579886 6.0621213083424506 0 -1 2
4273 713 3 -0.04 2.9588871361803486 4.2405028970145535 7.562669388095921 2 0 0
2691 449 1 0.09 6.801148253669527 3.069261595870773 10.031243602515612 0 -2 3
5418 903 2 0.42 6.357133782445367 0.5128788551125938 7.4991841461991005 0 -1 0
2690 449 4 -0.65 6.233689227809456 4.850226840627714 9.037044228508345 0 -2 3
468 78 2 0.42 0.9493701130151435 -0.8207341665658467 12.649988719514361 -2 0 2
4408 735 1 0.09 4.3006616990198 8.392650055470277 7.352652930165403 2 1 -2
4406 735 4 -0.65 4.80251811897307 8.315485152982928 9.363048797752468 2 1 -2
1434 239 2 0.42 -0.3034861556795192 0.19134620297989602 1.492785904395828 -2 2 -1
1677 280 1 0.09 3.0095047663225287 6.2488348367218 12.39905556429774 0 -1 3
1023 171 1 0.09 4.248054737337738 -0.056630404597008854 2.551050323019488 -1 3 0
4903 818 3 -0.04 8.771261663089245 8.636290302670595 8.800361689008751 1 -1 -2
1671 279 1 0.09 0.4396089567114453 7.704253606196749 10.134890787958412 -1 2 1
2387 398 1 0.09 0.3759231798333118 5.299162839368957 9.918438502945044 3 0 -5
3442 574 1 0.09 8.494770241106343 5.340007326845775 1.387780984751413 1 2 -3
2175 363 1 0.09 8.425962174717084 0.43730861298671364 11.510881379950087 1 1 1
2173 363 3 -0.04 9.237218992785643 0.7697135027430908 10.798879520148729 1 1 1
1022 171 4 -0.65 2.7514868210616186 -0.2691554147181998 1.2386614107840712 -1 3 0
4906 818 1 0.09 8.16000082236567 7.7229244840470255 9.020373611185866 1 -1 -2
3630 605 2 0.42 9.878979601094684 7.476789928492456 2.1656693616764797 2 0 -1
2376 396 2 0.42 8.614667990309426 9.136749019349354 4.324561504947941 0 1 0
4410 735 2 0.42 5.345854886623561 8.880579242119289 9.938070484435531 2 1 -2
2178 363 2 0.42 8.57740901117162 -0.05904397823972396 9.080764546607982 1 1 1
2388 398 2 0.42 -0.299548752098881 3.316820008994503 9.760938672240309 3 0 -5
3251 542 1 0.09 8.82243790215606 1.5931075768767102 -0.8084401756196586 0 1 -3
1673 279 1 0.09 0.36759832897931666 9.030821273528069 11.446863149020313 -1 2 1
2784 464 2 0.42 9.84875722759742 2.4619454065755444 4.282219160554747 0 -1 2
5619 937 1 0.09 9.886710326150512 5.978661010167973 12.619629654751103 2 0 0
147 25 1 0.09 -0.40775441300236537 7.566216649546991 3.6096710036918296 0 0 1
5977 997 3 -0.04 3.832484712096596 5.935458883672625 18.293227445002366 2 2 0
5982 997 2 0.42 4.498044152858141 4.482040860046699 17.21430266471207 2 2 0
5978 997 4 -0.65 3.991172814920387 5.300736805200437 17.02525112841605 2 2 0
4860 810 2 0.42 5.071998801740384 2.0422590883820524 17.50691781425016 0 -1 2
4856 810 4 -0.65 5.006319691704939 2.924459188834575 17.815871160826564 0 -1 2
5981 997 1 0.09 3.0356976427506797 5.602091369793904 18.932478628457375 2 2 0
5980 997 1 0.09 3.542753998814967 6.96272475737827 18.033925148408343 2 2 0
5979 997 1 0.09 4.744655345328205 5.924486483924359 18.90641974421943 2 2 0
5593 933 3 -0.04 4.839141303726402 3.486521436469176 14.509134861197074 1 -1 1
5035 840 3 -0.04 6.812064868957757 6.457527590695609 12.978142456357967 1 1 -1
5596 933 1 0.09 5.757348124159706 3.9856734843422528 14.551568629578759 1 -1 1
4835 806 1 0.09 9.374516407246526 3.9691162849654615 25.254997450467727 1 -1 1
5594 933 4 -0.65 4.657783592698537 3.045855753679808 13.178660410327048 1 -1 1
5037 840 1 0.09 6.6521748311662545 6.022235419486729 13.953708276869504 1 1 -1
4340 724 4 -0.65 3.9759107822303363 -0.7757108027444719 25.053028583856946 -1 0 1
5175 863 1 0.09 7.505975294103264 -0.5998744200552351 21.777224696771583 1 2 0
4246 708 1 0.09 5.161430618609695 8.040520542533399 23.838259192161626 1 0 -1
1078 180 1 0.09 6.529652649016254 8.608463827659552 14.237952583112481 -2 -1 2
56 10 4 -0.65 6.257303672051105 0.4263068783057893 17.150769869758363 0 -1 2
4300 717 1 0.09 6.947061454981084 7.170378294049991 17.313233314791013 1 0 -1
399 67 1 0.09 -0.398888252951569 -1.0080311316560606 22.607183890649985 0 -2 2
5595 933 1 0.09 4.816679805712544 2.651790359308051 15.222779358190117 1 -1 1
930 155 2 0.42 0.88175289465188 7.484001717163009 21.676221155598686 0 1 0
1050 175 2 0.42 6.466042622908694 2.3812673951774195 13.588426004546768 0 2 1
5117 853 1 0.09 1.2847094243436987 0.8908830181231848 21.25207473362533 0 -2 -1
1079 180 1 0.09 6.071798276345838 9.209453141624383 15.93274822396295 -2 -1 2
4344 724 2 0.42 3.7420593202447687 -0.3890608831534782 24.205351407380533 -1 0 1
774 129 2 0.42 9.170583207513166 4.577000999223949 18.55560079535796 1 -1 -1
464 78 4 -0.65 0.931488230353164 -0.27384905705182017 13.434370373788772 -2 0 2
4855 810 3 -0.04 5.376366303880336 2.8664634427001676 19.172418452150364 0 -1 2
4819 804 3 -0.04 0.7642025634250202 3.582021666953681 17.861398792064374 1 -1 -1
4343 724 1 0.09 5.982207309594424 -0.9379742196228388 24.85494572473753 -1 0 1
3913 653 3 -0.04 9.108197807899886 8.48281111862936 20.638239436519658 2 -3 -1
4859 810 1 0.09 6.103151522832921 2.082194144808122 19.374977912070296 0 -1 2
232 39 1 0.09 1.144763343100621 6.431456405041634 25.07790674184259 0 -3 1
5597 933 1 0.09 4.003060731888514 4.174117151213835 14.749576068206853 1 -1 1
4820 804 4 -0.65 -0.34650545855346127 2.873249256847432 17.274103442436484 1 -1 -1
3613 603 3 -0.04 5.86780197862239 5.4804353278903815 22.108185984399853 2 -1 0
3460 577 1 0.09 2.574016529349264 4.155071838642586 21.631375287941243 3 -1 0
558 93 2 0.42 1.286687387431931 9.077514050909793 14.46844280045671 0 2 2
1046 175 4 -0.65 7.376106498904815 2.098254376160972 13.166500938048209 0 2 1
4301 717 1 0.09 6.733971300584836 5.386423509879199 17.237120614565235 1 0 -1
4297 717 3 -0.04 7.361948287098295 6.235011044685984 17.75398318233964 1 0 -1
927 155 1 0.09 1.8249890301419018 8.263653942083046 19.693268895770366 0 1 0
3586 598 1 0.09 0.14458592638667667 6.1767866840714465 18.41202227780547 0 1 -1
4299 717 1 0.09 7.115601176912545 6.083641160527391 18.806107332755012 1 0 -1
772 129 1 0.09 7.874497809131089 2.9975161262778176 17.407358332855004 1 -1 -1
231 39 1 0.09 2.798039536392839 6.0881733984006505 25.6964353168528 0 -3 1
4857 810 1 0.09 5.772007961927994 3.885387049558326 19.44257193047935 0 -1 2
58 10 1 0.09 5.48748512393451 -0.36745528294885366 18.919163873303948 0 -1 2
3457 577 3 -0.04 1.9597164434816214 3.813331328904077 22.571569748766503 3 -1 0
4823 804 1 0.09 0.4307369312516598 4.274878667791988 18.67172811460919 1 -1 -1
1048 175 1 0.09 8.324249521548786 2.8151407651753506 14.801697544357976 0 2 1
3918 653 2 0.42 8.598929677788096 7.748528121364142 18.956595577708786 2 -3 -1
3458 577 4 -0.65 2.638062719507782 2.9663628819782613 23.518785067732754 3 -1 0
4822 804 1 0.09 1.247683380240733 4.311742450150785 17.164194342875263 1 -1 -1
1049 175 1 0.09 8.004651753063929 1.0813734200525151 14.8068893377535 0 2 1
5621 937 1 0.09 9.485844355021692 4.454594711139812 13.422553531551044 2 0 0
1045 175 3 -0.04 8.300833174209078 1.9770264283321635 14.203797650297325 0 2 1
1919 320 1 0.09 0.5836545641889548 0.34370584089033374 17.127900684199894 0 0 0
5808 968 2 0.42 8.525369072184668 0.1544057607364231 25.249482920181528 -2 2 0
3285 548 1 0.09 9.811615353935023 9.110353223013089 13.574827918599544 1 -2 0
592 99 1 0.09 1.0891932919220433 6.037650251146756 14.16248116212321 -1 0 1
5115 853 1 0.09 2.602700678152186 -0.0024829641440129446 20.503145730551633 0 -2 -1
5803 968 3 -0.04 7.1402216354392705 1.4261613993295095 25.835016536120964 -2 2 0
773 129 1 0.09 9.590803644366773 2.998342408673669 17.082859999295046 1 -1 -1
5598 933 2 0.42 4.049607832709576 3.681204990575522 12.715289599897222 1 -1 1
3461 577 1 0.09 0.9440194705911513 3.4925896982302973 22.32651487604765 3 -1 0
5178 863 2 0.42 9.811747843686053 -0.16873881306321137 23.260162167091032 1 2 0
2813 469 1 0.09 9.873160410593755 8.796277650984694 16.15664825365001 -2 1 0
4858 810 1 0.09 4.506001405109376 2.611182273490847 19.856031715886598 0 -1 2
5432 906 4 -0.65 0.4726359719780623 1.8618678244035047 25.246243054579843 0 1 0
4832 806 4 -0.65 9.270571515956753 6.039398238701227 24.610913874862483 1 -1 1
5431 906 3 -0.04 0.23986521841344388 0.4403715523355334 25.345118222595847 0 1 0
771 129 1 0.09 8.937468651261858 1.778219322986541 18.179676603034267 1 -1 -1
5807 968 1 0.09 7.125102281278025 1.7287616094040863 24.72864129744982 -2 2 0
59 10 1 0.09 4.223123787925689 -0.1173503744698704 17.72698187080792 0 -1 2
4836 806 2 0.42 8.832349462875351 6.284621842437746 25.470788364113602 1 -1 1
60 10 2 0.42 6.441665544005234 0.08058446545767728 16.2596706551222 0 -1 2
5118 853 2 0.42 2.9117897684510483 1.2239473408264891 22.739773371677213 0 -2 -1
926 155 4 -0.65 1.8022600089123002 7.511206088452274 21.618290078707542 0 1 0
233 39 1 0.09 2.5056744254962333 6.731886392038453 24.020006087477725 0 -3 1
589 99 3 -0.04 -0.0032098672518375837 6.066345350410346 14.108757430669874 -1 0 1
4821 804 1 0.09 1.5968465156552285 2.887724508954824 18.222909699125587 1 -1 -1
769 129 3 -0.04 8.845834223008762 2.7937767562322886 17.845534615144626 1 -1 -1
4298 717 4 -0.65 8.798209403060268 6.225293521885183 17.614625230465148 1 0 -1
3914 653 4 -0.65 8.287865029674172 8.462952622054006 19.493757614189885 2 -3 -1
3462 577 2 0.42 1.9267978090978812 2.6671122560223326 24.12290170813195 3 -1 0
5176 863 1 0.09 9.046536691686141 0.07709221725478321 21.11589698770488 1 2 0
3614 603 4 -0.65 4.709131814560553 5.718121420924615 21.395566390758756 2 -1 0
5174 863 4 -0.65 8.820379802169647 -0.1278748124421294 23.208443887384153 1 2 0
467 78 1 0.09 0.33931171508876456 1.6290787213124438 13.82756769603446 -2 0 2
5113 853 3 -0.04 2.077784400476611 0.13750791153924147 21.415619896883936 0 -2 -1
5173 863 3 -0.04 8.591720599651833 -0.5622437569281962 21.932844971535005 1 2 0
4831 806 3 -0.04 8.899211475951883 4.63431546001751 24.473101467575272 1 -1 1
229 39 3 -0.04 2.1924434541394326 6.7388327559470245 25.103162596825985 0 -3 1
5804 968 4 -0.65 7.751366849262199 0.14684838063443828 25.92209119755984 -2 2 0
5433 906 1 0.09 0.16844380667553704 -0.05087890819073482 24.381985342114074 0 1 0
1915 320 3 -0.04 0.38993690473889986 -0.7196838175291282 17.159384626201806 0 0 0
5038 840 1 0.09 7.761162217240162 7.076323724123073 12.989769511864068 1 1 -1
230 39 4 -0.65 2.317161089581187 8.032114468001812 25.631352420420342 0 -3 1
3615 603 1 0.09 6.681870552707468 5.178154556894763 21.490994167750387 2 -1 0
3617 603 1 0.09 5.60268294858447 4.757433033641088 22.896204002634317 2 -1 0
3616 603 1 0.09 6.100899737669831 6.419725808802027 22.710346327404146 2 -1 0
5114 853 4 -0.65 3.020455995774817 0.3118609681352291 22.4411340150676 0 -2 -1
3459 577 1 0.09 1.728696847308767 4.82182882824844 23.140746539403693 3 -1 0
770 129 4 -0.65 9.113756621083997 3.6786579943139124 18.92762114919948 1 -1 -1
234 39 2 0.42 2.6944583897172656 8.602254549944858 24.9420258182592 0 -3 1
5116 853 1 0.09 1.6111505121161493 -0.8979671705423027 21.66370529071507 0 -2 -1
3618 603 2 0.42 4.032681573750173 6.02876634684481 22.056764804042892 2 -1 0
4302 717 2 0.42 9.003173455099327 6.256914399478699 16.61115476689823 1 0 -1
1047 175 1 0.09 9.373893999585315 1.9003833178621705 13.949000650614986 0 2 1
463 78 3 -0.04 0.5758034508594655 1.0122992797933863 12.901459600897754 -2 0 2
4833 806 1 0.09 7.735077409507069 4.594326796597278 24.643050174758695 1 -1 1
925 155 3 -0.04 2.3496421755683348 8.406524765936867 20.623235100169648 0 1 0
55 10 3 -0.04 5.279266160534378 -0.4370485932127567 17.819402999713898 0 -1 2
555 93 1 0.09 2.2243260633950177 8.104190794046598 16.352960880361504 0 2 2
3917 653 1 0.09 9.423320238205545 7.392116254707096 20.77128283720011 2 -3 -1
4247 708 1 0.09 4.544853348606558 8.651524546399214 22.251712560098483 1 0 -1
929 155 1 0.09 3.4408171594461296 8.342179765409012 20.427198176951254 0 1 0
3916 653 1 0.09 8.749636372984947 8.921163726196326 21.683128180140052 2 -3 -1
4243 708 3 -0.04 4.917143006483302 8.961191140744626 23.32790047954923 1 0 -1
5434 906 1 0.09 1.1276616999160107 0.05478100179623091 25.865931208067963 0 1 0
4834 806 1 0.09 9.13878680934744 4.340249588087438 23.357248331225083 1 -1 1
553 93 3 -0.04 2.3317806117480933 9.197727136494194 16.14611627263679 0 2 2
591 99 1 0.09 -0.3729662354169789 5.646284138545242 13.120154641511217 -1 0 1
1918 320 1 0.09 0.4392908228626432 -1.0013128908337219 18.22355905092322 0 0 0
5039 840 1 0.09 5.948117584446253 7.083814125509495 12.714665759995935 1 1 -1
1106 185 4 -0.65 6.163203030903505 2.6782690758294123 30.41421174876091 -1 -1 -2
1110 185 2 0.42 5.483155523410746 3.3773074664185554 30.63630063773788 -1 -1 -2
4991 832 1 0.09 4.30536940834932 6.584658296059201 29.525038597938302 1 -4 0
4990 832 1 0.09 5.456598789854881 6.685980504771568 30.978788942241305 1 -4 0
4987 832 3 -0.04 4.495100824999416 6.333810836009172 30.516968665476963 1 -4 0
4988 832 4 -0.65 4.501878087167282 4.889472565634276 30.5852582573382 1 -4 0
4890 815 2 0.42 -0.08283636592482424 1.5734170864047003 32.15651738091044 0 2 -3
4992 832 2 0.42 3.5117717781559477 4.647095694992252 30.790416033587796 1 -4 0
4989 832 1 0.09 3.7633568449171735 6.730764223136461 31.217086941198843 1 -4 0
218 37 4 -0.65 8.221584476577279 4.57745428432547 29.40287177717161 2 -1 2
683 114 1 0.09 2.205188444994588 3.3406590440719413 28.864830961596116 -2 2 -2
680 114 4 -0.65 1.3068289455825026 4.1319475678606485 30.6674274446712 -2 2 -2
684 114 2 0.42 0.4453489496765507 3.9910645970208822 31.083133212887674 -2 2 -2
5373 896 1 0.09 4.781176049210562 0.30082448432248876 28.594222765476346 1 3 -1
679 114 3 -0.04 1.2032740428596178 3.4944012068808217 29.330544308531376 -2 2 -2
96 16 2 0.42 1.5502780941300842 8.999682844578105 29.682125745218116 -1 -1 -1
92 16 4 -0.65 0.7623943592055966 8.45035817425097 29.673326253221596 -1 -1 -1
5376 896 2 0.42 3.5387036050220235 -0.49022639451106254 26.868618536667505 1 3 -1
5372 896 4 -0.65 3.0655120916839684 -0.18472496272059657 27.6380961770196 1 3 -1
4885 815 3 -0.04 1.7581837036501757 1.099801595070888 32.07113361643169 0 2 -3
5371 896 3 -0.04 3.8582482301984564 0.744859392235987 28.274237433803396 1 3 -1
4887 815 1 0.09 2.03172808467067 0.26510783198870147 32.79381825532252 0 2 -3
681 114 1 0.09 0.656413568539282 2.53016416595611 29.32165855921653 -2 2 -2
3554 593 4 -0.65 8.571768748822251 -0.7756649457220586 28.306073262817108 1 0 0
4148 692 4 -0.65 3.7882103179530855 8.707156510600841 39.37200776055375 1 -2 -1
3850 642 1 0.09 8.930742672430906 1.6735045189021398 35.30919461820496 1 1 -2
4886 815 4 -0.65 0.406913211609811 0.8926059662120978 31.722592635601643 0 2 -3
130 22 1 0.09 3.4583309036149807 1.3408867584581277 35.38596631568978 -2 1 1
5806 968 1 0.09 7.827779816543634 2.188417770978765 26.29286710109896 -2 2 0
2461 411 3 -0.04 7.135512959261864 5.186202947379637 33.14088765513062 -1 0 2
4889 815 1 0.09 1.9830045240139187 2.1156982688112613 32.50649431264047 0 2 -3
5065 845 3 -0.04 0.38826762689928496 0.682676096637622 38.790104762967886 2 -1 1
222 37 2 0.42 7.5282713218929596 3.974616404170405 29.681129482202845 2 -1 2
3558 593 2 0.42 8.285467285931547 -0.5449008541140027 27.387380469411383 1 0 0
5375 896 1 0.09 3.2553961042612904 1.3163381244245311 29.0437142130655 1 3 -1
496 83 1 0.09 0.5552504882059713 6.006178511330032 32.996397546657015 -1 3 0
1479 247 1 0.09 3.795757599016734 8.985533794356703 28.018457603520442 0 1 3
2659 444 3 -0.04 7.247677571904036 5.111805751119755 38.75631665124738 -3 -2 0
3851 642 1 0.09 7.927894168773696 2.3159533647158925 36.684412117380695 1 1 -2
93 16 1 0.09 1.9721489494895983 6.830971815844274 29.598318959395314 -1 -1 -1
2462 411 4 -0.65 7.29497380109174 5.041145286114564 34.57107038929038 -1 0 2
1293 216 1 0.09 4.479247260393898 3.3864655886034045 39.16437504055668 -3 -1 -2
3852 642 2 0.42 7.20175375500828 3.1119936413744016 34.789741429442 1 1 -2
4888 815 1 0.09 2.423691548725911 0.9977130711253497 31.22650413002758 0 2 -3
1292 216 4 -0.65 2.854700214583701 3.960674040895385 37.92392790396733 -3 -1 -2
2216 370 4 -0.65 9.120416524628359 7.094512292030588 35.59496837294707 2 0 -1
3336 556 2 0.42 6.882403051833183 8.414153813229099 26.37211387730911 -1 0 4
3557 593 1 0.09 7.317309229971875 0.7372490764497583 29.007658839710835 1 0 0
5069 845 1 0.09 -0.12818272557313742 1.639426569439503 38.53623060807197 2 -1 1
3553 593 3 -0.04 8.394749141479279 0.41335354269991575 29.01022045564523 1 0 0
91 16 3 -0.04 1.1635847415897975 7.284840555365584 29.02816760399611 -1 -1 -1
3335 556 1 0.09 7.807439635663936 7.3921849537091955 28.546960734516894 -1 0 4
2630 439 4 -0.65 1.4736502686489186 5.797750794704746 39.78254170076498 2 0 1
5374 896 1 0.09 4.034928557382585 1.4830226168464167 27.410671281484092 1 3 -1
2251 376 3 -0.04 4.161369445030266 6.635653844051612 36.26417661251492 0 2 1
1105 185 3 -0.04 6.447830443055178 1.899627210876596 31.60481541167195 -1 -1 -2
95 16 1 0.09 1.3396240968986215 7.669501567839713 27.965153788053776 -1 -1 -1
2217 370 1 0.09 8.454767832751296 8.86173533353971 36.691332597925616 2 0 -1
3331 556 3 -0.04 6.8953718320372275 7.267876013310904 27.888333367986736 -1 0 4
4152 692 2 0.42 3.66257908493439 8.123773996778958 38.61770786979325 1 -2 -1
2215 370 3 -0.04 9.243814959923835 8.082690469110107 36.60067732699862 2 0 -1
2218 370 1 0.09 9.39451777042484 7.575176853219766 37.6220149473226 2 0 -1
1108 185 1 0.09 5.741965740767622 2.362571662075982 32.35570892848924 -1 -1 -2
3848 642 4 -0.65 6.911396853149374 2.1915672810129365 34.9419325533528 1 1 -2
3334 556 1 0.09 6.698279224114056 6.169142172527403 27.98873074024985 -1 0 4
3555 593 1 0.09 8.761373412464623 0.4765084842397882 30.0423360173184 1 0 0
1291 216 3 -0.04 3.715698520250511 2.970161734203515 38.44214140218931 -3 -1 -2
3247 542 3 -0.04 7.764909110368809 1.4881511081669583 39.739940679803276 0 1 -4
682 114 1 0.09 0.6807565848973434 4.181877731493165 28.621140663510474 -2 2 -2
3249 542 1 0.09 7.5790511062108905 0.3788823893323032 39.66927207195909 0 1 -4
217 37 3 -0.04 9.033792436225896 4.039599441254 28.431802874435416 2 -1 2
582 97 2 0.42 1.1867684082323666 6.55519508190366 38.208206739780124 1 1 0
1410 235 2 0.42 3.700584853205836 -0.6891940884725278 39.857111940688235 1 1 1
221 37 1 0.09 8.744424735266628 3.0531293070144265 28.05045469721807 2 -1 2
2463 411 1 0.09 6.8665170062005005 6.281558830851557 32.8939572883681 -1 0 2
1709 285 1 0.09 0.5859768975211797 -0.5481687400517238 28.580616080153938 -3 2 0
1406 235 4 -0.65 3.795425103695125 -0.5367650728509779 38.897378263945235 1 1 1
131 22 1 0.09 3.661425209877467 -0.4403606072072156 35.58893511151593 -2 1 1
2634 439 2 0.42 1.8834343819301327 5.158812493751555 39.13191307131629 2 0 1
1295 216 1 0.09 4.32600222030212 2.464594138277242 37.688852314869166 -3 -1 -2
5772 962 2 0.42 0.19428868533240073 2.5798594595145796 36.26936261298427 3 1 1
753 126 1 0.09 7.443640689902979 8.776841585960206 30.521133017622223 -1 -3 -1
2663 444 1 0.09 7.814430846320034 4.2486585638319365 38.32508025383259 -3 -2 0
3332 556 4 -0.65 7.231375390710385 7.557480699518489 26.52279591785209 -1 0 4
2661 444 1 0.09 6.244073365357141 5.243961581502082 38.270106643905386 -3 -2 0
5767 962 3 -0.04 1.1464627489413952 3.5816107941867363 34.75727797455566 3 1 1
129 22 1 0.09 4.9013088320669045 0.7075081030907058 36.158199521509836 -2 1 1
3970 662 1 0.09 9.813106213694793 2.9813784665473744 30.79402466119685 2 -1 -2
3333 556 1 0.09 6.040362357757957 7.925891113628646 28.267432231580933 -1 0 4
1296 216 2 0.42 2.39020004843567 3.4620599075468075 37.18345319698262 -3 -1 -2
2256 376 2 0.42 2.4364078051884444 7.756605131770112 36.2821721176853 0 2 1
1107 185 1 0.09 7.524707117107078 2.026317740601779 31.933412711697294 -1 -1 -2
578 97 4 -0.65 0.92325043115479 7.055279676930658 37.458882144420066 1 1 0
1109 185 1 0.09 6.159078633602433 0.8009497201546416 31.55066688581836 -1 -1 -2
127 22 3 -0.04 4.196426064218785 0.4672956617959476 35.341275782507076 -2 1 1
2253 376 1 0.09 3.921367201913836 6.085308287684384 37.23814528440751 0 2 1
3250 542 1 0.09 7.737975831368837 1.9697019245336658 38.79295887024527 0 1 -4
3847 642 3 -0.04 7.954317355577134 1.6960436499529319 35.81475839329178 1 1 -2
2662 444 1 0.09 7.875898825047882 6.025627961708766 38.72987439365223 -3 -2 0
128 22 4 -0.65 4.856349870765443 0.2317692795134858 34.11922652086388 -2 1 1
5768 962 4 -0.65 1.0460186992717044 2.9987153569596767 36.108869314191196 3 1 1
5771 962 1 0.09 1.122599799936621 4.705620066754275 34.893082827099775 3 1 1
2466 411 2 0.42 7.968819527570075 5.711355403671661 34.81930774283203 -1 0 2
3849 642 1 0.09 7.7801246498281476 0.6393314218573471 36.17247055760303 1 1 -2
2254 376 1 0.09 3.8580234746032023 6.084665957712544 35.341856499767516 0 2 1
5769 962 1 0.09 2.141669685715698 3.3876507641889297 34.315016538500586 3 1 1
132 22 2 0.42 5.5218197461217935 0.9112948877147775 34.15447462772335 -2 1 1
2255 376 1 0.09 5.307456045529201 6.759865561740821 36.29706478124221 0 2 1