LAMMPS data file via write_data, version 29 Aug 2024, timestep = 1000000, units = real

5103 atoms
7 atom types
4374 bonds
6 bond types
5103 angles
7 angle types
5103 dihedrals
7 dihedral types
1458 impropers
2 improper types

0.9008635623335053 44.09913643764591 xlo xhi
0.9008635623335053 44.09913643764591 ylo yhi
0.9008635623335053 44.09913643764591 zlo zhi

Masses

1 12.011
2 12.011
3 32.06
4 1.008
5 1.008
6 1.008
7 1.008

Pair Coeffs # lj/charmmfsw/coul/long

1 0.064001 3.70614 0.064001 3.70614
2 0.068 3.72396 0.068 3.72396
3 0.45 3.56359 0.45 3.56359
4 0.025999 2.24506 0.025999 2.24506
5 0.025999 2.24506 0.025999 2.24506
6 0.030999 2.22725 0.030999 2.22725
7 0.1 0.801809 0.1 0.801809

Bond Coeffs # harmonic

1 600 1.34
2 190.48 1.7704
3 365 1.1
4 365 1.1
5 360.5 1.1
6 275 1.325

Angle Coeffs # charmm

1 72.6 119.56 0 0
2 35 120.5 0 0
3 35 120.5 0 0
4 44 121 0 0
5 38.8 95 0 0
6 35.66 117.28 0 0
7 19 119 0 0

Dihedral Coeffs # charmmfsw

1 2 2 180 1
2 1.7 1 180 1
3 2 2 180 1
4 2.59 2 180 1
5 2 2 180 1
6 2 2 180 1
7 0.94 2 180 0

Improper Coeffs # harmonic

1 0 0
2 53 0

Atoms # full

4849 693 5 0.21 3.0674950798478604 1.7827228912517195 5.698541072103772 -4 4 1
1018 146 3 -0.234 2.7886861891225303 7.136947868525623 2.708064415058473 4 0 -1
2567 367 5 0.21 7.516852142806445 5.733054618969192 2.3841576103507593 1 -2 1
1051 151 1 -0.497 2.881526297038719 9.519138088700652 6.052967911468421 2 4 2
1016 146 1 -0.497 3.978875158321885 9.24215265355462 1.4908248478403552 4 0 -1
4845 693 1 -0.497 2.977202638760903 1.9898752153541313 4.660811892701753 -4 4 1
2718 389 2 -0.022 8.33080471002349 9.1998607771341 4.194714644577543 2 -1 1
1019 146 4 0.21 4.779567597902228 10.032405324070254 1.2785438445820734 4 0 -1
2568 367 6 0.173 6.034468825464402 3.263496928902259 3.7385725999615307 1 -2 1
1978 283 4 0.21 4.587191789945374 4.4214792616198135 1.7199515653997086 -3 -1 -4
4850 693 6 0.173 2.1924870753647587 1.4647438263075623 2.75135990345001 -4 4 1
3400 486 5 0.21 11.230457927761154 1.3679885504100766 2.714722413653855 0 2 -1
2717 389 1 -0.497 9.499322969095028 9.706751139607736 4.717720003753411 2 -1 1
2563 367 1 -0.497 7.16752270964819 4.758297224281039 2.51674587994059 1 -2 1
2271 325 3 -0.234 11.16451515180665 6.491585575772248 3.2629349241659487 0 -3 -3
2719 389 3 -0.234 6.949487326459951 10.329689416940889 4.0200685504873475 2 -1 1
1979 283 5 0.21 3.0191325972809646 3.5055212047278363 1.1647820009608418 -3 -1 -4
2569 367 7 0.16 7.13648087969327 6.177655041153978 4.2925611393230865 1 -2 1
2564 367 2 -0.022 6.450475804149844 4.3659889312278874 3.5507480444063226 1 -2 1
1022 146 7 0.16 1.9402619797318386 7.9606509115092905 1.960130448623712 4 0 -1
1054 151 4 0.21 3.2278691410393074 9.285618824270728 5.007105792755604 2 4 2
1020 146 5 0.21 3.0118077401633934 9.353013310607704 0.9418375218267376 4 0 -1
2275 325 7 0.16 10.385569303238674 5.41882104995024 3.1011922030026 0 -3 -3
1975 283 1 -0.497 4.124986876558798 3.707446106093437 1.1277951927746275 -3 -1 -4
2722 389 6 0.173 8.105542123215013 8.186512018842013 3.9655057094738293 2 -1 1
2566 367 4 0.21 7.28339077609769 4.165491132356294 1.591922486558662 1 -2 1
2723 389 7 0.16 7.852493630505139 11.339267636279512 4.095125750090902 2 -1 1
1021 146 6 0.173 5.1806944010548905 7.945911917822734 2.6991185386606755 4 0 -1
4846 693 2 -0.022 2.584532060933083 1.1338709425926559 3.718669463863189 -4 4 1
2721 389 5 0.21 9.430792524554308 10.628908551863026 5.251975093922281 2 -1 1
1017 146 2 -0.022 4.165199125870878 8.17072173230953 2.299448721992329 4 0 -1
4848 693 4 0.21 3.110043945773919 3.061332009814317 4.480288511716749 -4 4 1
2565 367 3 -0.234 6.014443927558919 5.66912570783711 4.786772417988205 1 -2 1
2720 389 4 0.21 10.39606301333634 9.101034645786564 4.852412412692571 2 -1 1
2273 325 5 0.21 11.53846683861254 3.749186051144483 2.6295479643388853 0 -3 -3
1055 151 5 0.21 1.7647514311861299 9.290669816453883 6.151957462910564 2 4 2
1081 155 3 -0.234 7.444245448943837 2.869395689336038 7.174494919153046 4 2 2
1168 167 6 0.173 10.54919872518243 10.244505312408718 11.669110048685326 0 -4 4
1798 257 6 0.173 7.957731205669398 10.801043063417886 11.029376461064313 2 0 1
1059 152 2 -0.022 11.51684150346698 7.933321196677693 7.223998929021547 -3 0 3
4940 706 5 0.21 7.763617639445929 7.27161429988869 9.709319109207817 -3 -2 3
2695 385 7 0.16 10.684355327499919 11.036231077124679 6.578071934358911 2 1 2
4765 681 5 0.21 1.2691571581951788 7.466962613779994 7.66546229382441 -2 -1 2
1797 257 5 0.21 5.7028319714357325 11.42647891725362 8.913814901812072 2 0 1
1795 257 3 -0.234 5.751663999297369 10.059393486420399 11.338745239870597 2 0 1
2109 302 2 -0.022 2.3905263689678082 6.251420364862439 11.496982582755775 -2 1 -1
2108 302 1 -0.497 3.2274088109532886 6.770702506890271 10.575005678268528 -2 1 -1
4788 684 7 0.16 10.702480731148274 4.297059751711933 7.010760481996471 -2 0 0
1060 152 3 -0.234 10.456132935657214 7.927682515132071 8.690731751685046 -3 0 3
1799 257 7 0.16 4.788226760834231 10.714032100786046 10.65921562042669 2 0 1
4936 706 1 -0.497 6.805474814426735 6.847268169929827 10.093500866144996 -3 -2 3
1052 151 2 -0.022 3.6992276234330466 9.829331821323745 7.111824876885608 2 4 2
1085 155 7 0.16 8.01904309666935 3.5076802901912347 8.18437384002181 4 2 2
2110 302 3 -0.234 1.2503484962387095 5.021339782522147 10.835221893511962 -2 1 -1
1057 151 7 0.16 1.8384417732540315 10.234735410629831 8.448849122572742 2 4 2
1053 151 3 -0.234 3.1478653405908346 10.11743555125037 8.75835149668768 2 4 2
4942 706 7 0.16 9.026282231980668 5.587743806940474 10.214686652678601 -3 -2 3
4941 706 6 0.173 5.760250968641624 5.0853525419353725 10.844854163206717 -3 -2 3
1794 257 2 -0.022 6.962127931442786 10.955797114526474 10.621543720805748 2 0 1
4763 681 3 -0.234 2.418887326526918 4.989506602481966 6.971897827831845 -2 -1 2
4767 681 7 0.16 3.003029217188862 6.195093468908038 7.036927998303753 -2 -1 2
2112 302 5 0.21 3.162678723054291 6.522356590832313 9.511990780095527 -2 1 -1
4939 706 4 0.21 5.926425892602868 7.4466424636364295 9.775525591323092 -3 -2 3
1793 257 1 -0.497 6.62266667185416 11.57359968081729 9.445992232057614 2 0 1
1083 155 5 0.21 7.927585446569519 2.0121384043223522 9.721723344119832 4 2 2
2156 308 7 0.16 1.7008987480050168 1.8633371398717238 9.200403938364209 5 1 2
2111 302 4 0.21 3.8683645121098436 7.5413979278921595 10.897569157078216 -2 1 -1
1079 155 1 -0.497 7.747143145769607 1.1535746226919825 9.079109056465983 4 2 2
1080 155 2 -0.022 7.632232506658533 1.2548475718256462 7.804665529816204 4 2 2
4938 706 3 -0.234 8.127776760598856 4.575829608087099 10.298763213336459 -3 -2 3
4937 706 2 -0.022 6.691385616242609 5.554041249145499 10.439585925258237 -3 -2 3
1056 151 6 0.173 4.765013329418615 9.929812007228225 6.966478840185759 2 4 2
1064 152 7 0.16 11.011729339717977 9.029954668797737 9.219849963507857 -3 0 3
2152 308 3 -0.234 2.880236249756414 2.262015979104075 9.70129568599218 5 1 2
1063 152 6 0.173 11.300982831217011 7.124710182869068 6.521624793585823 -3 0 3
2155 308 6 0.173 4.979369388596637 1.5172934885107061 8.496318515363473 5 1 2
4784 684 3 -0.234 11.210040802448278 3.08945617687064 6.616380268711868 -2 0 0
2114 302 7 0.16 1.428604755233267 5.438490635520674 9.564359044296493 -2 1 -1
2151 308 2 -0.022 3.8853404477948956 1.3455766601727321 8.5234444485159 5 1 2
936 134 5 0.21 10.94052767935303 1.0646083077347435 11.663751666088265 2 0 3
4786 684 5 0.21 11.685130217659687 4.631263615709244 8.832298304942103 -2 0 0
775 111 5 0.21 3.643625377679495 5.5798257051955815 16.982978035272023 -2 -1 -3
13 2 6 0.173 1.631485430744286 1.1290319009908518 13.518046655403747 3 2 -2
2453 351 3 -0.234 3.3524594668887495 1.0550428660060658 16.589422537652787 1 -3 3
2476 354 5 0.21 3.3354629034661696 11.379629394087376 15.51642985587626 1 3 3
276 40 3 -0.234 4.987865934435304 1.2147507188830782 12.803453983591476 -3 3 4
2576 368 7 0.16 6.971500833324736 5.987688562748587 13.233913193380765 1 -1 1
2575 368 6 0.173 8.305630206119023 8.941520255942038 13.76435526164619 1 -1 1
5042 721 2 -0.022 7.0945251451996745 3.6633903811155775 15.164003417534467 0 2 -1
2475 354 4 0.21 2.8442558926765162 10.571523752054459 13.86586208725766 1 3 3
772 111 2 -0.022 2.76769424711649 7.624186311201407 16.809759727003755 -2 -1 -3
1030 148 1 -0.497 6.526272854477903 9.211750278779805 16.918136618837273 -2 2 -1
5045 721 5 0.21 8.092132273088193 5.506473906434654 15.416651147482051 0 2 -1
2574 368 5 0.21 9.30873785387438 6.179325266960883 12.680604773822113 1 -1 1
5046 721 6 0.173 7.146059901112791 2.5519607798125366 14.858331110897279 0 2 -1
5047 721 7 0.16 5.935191024821403 5.545093497974162 15.507225177777578 0 2 -1
1470 210 7 0.16 8.515057908730642 11.037586665378543 13.822605891309678 -1 1 1
777 111 7 0.16 3.3116926576796035 6.6666597232469105 14.921078473838573 -2 -1 -3
5044 721 4 0.21 9.243064505938138 4.15138699684563 14.934595757644487 0 2 -1
2753 394 2 -0.022 10.505102216635153 8.003226655635542 16.33072220564575 0 -1 -1
2456 351 6 0.173 1.0154337667120978 1.6415340931891655 16.84953306687242 1 -3 3
3483 498 4 0.21 10.676146992283092 11.359396526281417 16.82973073165763 1 1 2
2572 368 3 -0.234 6.704471453874628 7.193248395807602 13.602737256211594 1 -1 1
2570 368 1 -0.497 9.319236918201248 7.310914383204116 12.845213681819862 1 -1 1
2472 354 1 -0.497 3.17510846890635 11.502209363160098 14.412667355176467 1 3 3
773 111 3 -0.234 3.007035078858421 7.915292585732891 15.086677996490229 -2 -1 -3
5043 721 3 -0.234 5.479441121099019 4.288917901230482 15.713644614606185 0 2 -1
5041 721 1 -0.497 8.165412078252757 4.461226254206673 15.088641186485539 0 2 -1
1494 214 3 -0.234 9.994730749525658 1.4917614174522196 16.829384228140853 0 3 0
2573 368 4 0.21 10.255329279572287 7.796486368618229 12.553943247672473 1 -1 1
1033 148 4 0.21 6.242669822171915 8.859761854926166 15.922815727474084 -2 2 -1
2757 394 6 0.173 9.85985595900171 8.527307461999495 15.703113308230208 0 -1 -1
2571 368 2 -0.022 8.262277659914634 7.929092423006307 13.428637954648886 1 -1 1
2113 302 6 0.173 2.5827324124370543 6.413630367283109 12.577500633475486 -2 1 -1
1164 167 2 -0.022 11.636326482745968 10.424544103145431 11.782806718063 0 -4 4
1034 148 5 0.21 7.1482902039043426 10.07390543394981 17.092930623404225 -2 2 -1
2752 394 1 -0.497 10.092416612506135 6.998403188613217 17.070618981812977 0 -1 -1
511 73 7 0.16 11.56603543581394 2.5126469594301155 15.004865573428836 1 1 -2
280 40 7 0.16 4.165591098581228 1.3142623579271349 11.770339531815 -3 3 4
2249 322 2 -0.022 6.810095742751232 3.9629426167102744 19.50730379720348 0 3 -2
2254 322 7 0.16 5.635350836197832 2.246034635661486 20.745248936078042 0 3 -2
771 111 1 -0.497 3.0403759586137373 6.444223330980694 17.3808074778404 -2 -1 -3
4222 604 1 -0.497 2.8948630033584752 9.081082039318765 22.160488546406583 -2 -1 -2
2251 322 4 0.21 7.9479682175258395 5.115329649994908 20.68197828866274 0 3 -2
4228 604 7 0.16 2.494026139671248 10.430995732087563 20.01954717478577 -2 -1 -2
3552 508 3 -0.234 10.761212695002666 5.845943602453122 22.075019328336495 -1 -1 2
2250 322 3 -0.234 5.696377413896192 2.4710389162024358 19.439772972332456 0 3 -2
2455 351 5 0.21 3.044386300309994 2.544443681185513 18.95683751570936 1 -3 3
892 128 3 -0.234 1.2498822423904474 5.033513511064012 21.371381253063063 0 0 2
1495 214 4 0.21 10.137903106858241 3.3437508716100264 19.967347263679578 0 3 0
1031 148 2 -0.022 5.961490105222452 8.48878407072963 17.885102173203286 -2 2 -1
2248 322 1 -0.497 7.0680065842059685 4.461579838045447 20.76405755130454 0 3 -2
1035 148 6 0.173 5.216509348185993 7.745198814605238 17.728959107537136 -2 2 -1
2457 351 7 0.16 4.136729226057524 1.9729358907983232 17.136813947865956 1 -3 3
1496 214 5 0.21 8.890703766058325 2.1711703279620878 19.234147548724376 0 3 0
3486 498 7 0.16 9.01722679218785 10.530933424217771 20.219667700569428 1 1 2
3484 498 5 0.21 10.397458760244245 10.388654130191252 18.367041768544517 1 1 2
1660 238 1 -0.497 9.022891912583537 1.4915667614894597 22.442358238861296 0 3 -4
1032 148 3 -0.234 6.458223320064998 8.777683406201994 19.535552997706866 -2 2 -1
4226 604 5 0.21 3.495810057626371 9.85232685529716 21.684407100975132 -2 -1 -2
2755 394 4 0.21 9.00974238561118 6.773715496987763 17.23066453048241 0 -1 -1
4227 604 6 0.173 1.0615452757137365 7.9013839388927884 22.006959649461404 -2 -1 -2
1498 214 7 0.16 8.805443011081328 1.4600639793662178 17.42394069616219 0 3 0
4224 604 3 -0.234 1.3984702150133599 9.634190358307873 20.113655826394513 -2 -1 -2
891 128 2 -0.022 2.8460164758309743 5.454557018059233 22.082255262883525 0 0 2
3480 498 1 -0.497 10.158674738505187 11.277520823069288 17.77487252265067 1 1 2
1036 148 7 0.16 7.229926459542199 9.846099542922476 19.24812347658444 -2 2 -1
2756 394 5 0.21 10.76616535253771 6.33767624787553 17.65602696072257 0 -1 -1
896 128 7 0.16 1.7950798253152411 4.335607621564362 20.43418980398861 0 0 2
1492 214 1 -0.497 9.878439557013522 2.6355031448696775 19.172571957561317 0 3 0
2253 322 6 0.173 7.197588937093945 4.445155413797485 18.600846174901193 0 3 -2
890 128 1 -0.497 3.98901395342871 5.168419016739927 21.495499502169846 0 0 2
894 128 5 0.21 3.9789962117358164 4.815624924514699 20.490374888231628 0 0 2
1493 214 2 -0.022 10.65082227082809 2.4242669944943067 18.09220476165861 0 3 0
2252 322 5 0.21 6.6273854093849325 4.077156332379452 21.671774769548698 0 3 -2
893 128 4 0.21 4.881496853415504 5.507176773202869 21.91188881302996 0 0 2
2451 351 1 -0.497 2.0180633334192954 2.5032365598742743 18.48644502640309 1 -3 3
4223 604 2 -0.022 1.722809614556959 8.726690936234974 21.587655449695955 -2 -1 -2
1664 238 5 0.21 9.96039033207749 1.708636581495708 21.931984622131672 0 3 -4
1663 238 4 0.21 8.169876761005922 1.3257084866813127 21.77895032976881 0 3 -4
774 111 4 0.21 2.672019842845492 6.4061085557908735 18.38187029229904 -2 -1 -3
776 111 6 0.173 2.419644980390303 8.436470637458998 17.474750204870883 -2 -1 -3
2452 351 2 -0.022 1.9728971707031207 1.8002333274063906 17.32412689370452 1 -3 3
4589 656 4 0.21 7.505857280955312 7.750841670604837 22.06365508861207 -3 5 1
1497 214 6 0.173 11.687092820704862 2.808284458042242 18.053128938728577 0 3 0
2454 351 4 0.21 1.1267224994786156 2.8450855546832283 19.032126696354435 1 -3 3
4592 656 7 0.16 10.16313024311423 9.846164113832616 23.58259500976555 -3 5 1
1665 238 6 0.173 8.04952787856083 0.9820873908584176 24.197611930858617 0 3 -4
4126 590 3 -0.234 7.08469160090828 4.4787157270325295 24.39852794584995 2 -3 2
1626 233 2 -0.022 2.5835904835394907 8.79643806103138 27.656329322418042 -2 1 -2
1627 233 3 -0.234 2.8665000866954697 7.4550925762672415 26.47100489973199 -2 1 -2
1666 238 7 0.16 11.159892435710118 1.6155011265119499 23.570679315178403 0 3 -4
3193 457 1 -0.497 9.319963058334586 6.223392730044496 26.92554771453393 -1 3 -1
448 64 7 0.16 1.2135142002818493 1.270685920611674 22.648851723204125 -1 0 1
3197 457 5 0.21 8.94052733211938 5.412473296805712 26.28860997509766 -1 3 -1
4587 656 2 -0.022 7.85371098774393 9.666042898181546 22.942514707815928 -3 5 1
3194 457 2 -0.022 8.541872672482523 7.27901791447891 27.238960084624896 -1 3 -1
885 127 3 -0.234 6.4576382974359055 10.62245756696154 26.81111567890053 -1 0 5
4128 590 5 0.21 4.471837721419518 3.841635751309435 24.044805122259927 2 -3 2
4130 590 7 0.16 5.958981357853265 4.869605012122179 23.746006495797808 2 -3 2
887 127 5 0.21 4.789142120674393 9.331361260611176 25.07773191684007 -1 0 5
1661 238 2 -0.022 9.003915386444604 1.275563680902974 23.75538129704254 0 3 -4
4124 590 1 -0.497 4.793316579395439 2.9609965279880357 24.632775664919638 2 -3 2
4127 590 4 0.21 4.376953470078433 1.9437993361843078 24.64012469663351 2 -3 2
1222 175 4 0.21 10.804301168871895 9.346037052248402 26.222201353361186 -2 6 -4
4588 656 3 -0.234 9.119891855768971 10.69411678778308 23.755033009577485 -3 5 1
3551 508 2 -0.022 11.630920976520384 5.241212654969396 23.458971313281857 -1 -1 2
4125 590 2 -0.022 6.127311692626979 3.071415549361312 24.97155415598726 2 -3 2
4586 656 1 -0.497 8.186755926300208 8.397815678512426 22.621087523378566 -3 5 1
3196 457 4 0.21 10.392686329879776 6.175305683507687 27.353845406572674 -1 3 -1
3031 433 7 0.16 4.702338630007302 4.6109473953568765 27.786151039212402 2 2 -1
4225 604 4 0.21 3.256916023851059 8.698255580307407 23.10515008794912 -2 -1 -2
4590 656 5 0.21 9.0551222628117 7.87969186856935 22.96669705105994 -3 5 1
3199 457 7 0.16 7.29625948052832 6.114375985414382 26.010991647121777 -1 3 -1
1631 233 7 0.16 1.7195105989599409 6.820929100223172 26.74744917592419 -2 1 -2
4591 656 6 0.173 6.965870561094561 10.22564698296063 22.779682741942725 -3 5 1
3195 457 3 -0.234 6.988449706770851 7.317238759831876 26.464008093306187 -1 3 -1
1662 238 3 -0.234 10.450365917432464 1.3599776496545617 24.679844443999404 0 3 -4
4129 590 6 0.173 6.663197036414775 2.2777233828739565 25.625765923189704 2 -3 2
889 127 7 0.16 6.39358619111317 9.53081382338887 26.100818961563025 -1 0 5
883 127 1 -0.497 4.578031600604394 10.405938391330533 25.0692098781156 -1 0 5
886 127 4 0.21 3.531766055467458 10.560587846418679 24.859138209749148 -1 0 5
3555 508 6 0.173 11.193327311855022 5.348524200146658 24.491272644022978 -1 -1 2
884 127 2 -0.022 5.156323244833141 11.228067733651823 25.94337318214843 -1 0 5
895 128 6 0.173 2.8375690507263895 5.935142420882158 23.00702538242401 0 0 2
3029 433 5 0.21 3.0409563507470376 3.622542090351301 27.065510641423625 2 2 -1
1119 160 6 0.173 8.918179887291146 4.131274022277226 29.63390048496748 -1 5 1
4001 572 4 0.21 1.1496735229879174 5.528967624464806 28.361451750067918 3 -1 1
4638 663 4 0.21 4.434342869515936 7.096368368471353 30.531692124876802 0 -5 -2
4900 700 7 0.16 11.347815280230472 10.644054825656545 29.654471765079602 3 0 -1
4895 700 2 -0.022 9.350844720951473 9.757819148225877 30.66115383743786 3 0 -1
4636 663 2 -0.022 5.467906072042581 8.920087643739574 30.321400114497287 0 -5 -2
4896 700 3 -0.234 10.325862622784296 9.860007085877779 29.22597364304944 3 0 -1
4894 700 1 -0.497 9.650120960949275 10.561267700511786 31.720971820028108 3 0 -1
766 110 3 -0.234 1.9638563444583983 11.208627310429467 32.45694427759621 -4 0 1
4639 663 5 0.21 3.3924528676219783 8.734255162771786 30.925449918573204 0 -5 -2
4641 663 7 0.16 4.759622617371535 10.433109889907877 31.765168901801914 0 -5 -2
1115 160 2 -0.022 8.91944495589203 3.093028673534285 29.316369575737408 -1 5 1
1114 160 1 -0.497 7.830202547076856 2.3281554255168597 29.46917501069711 -1 5 1
4637 663 3 -0.234 5.691075293355656 10.524281285734917 30.865650126531982 0 -5 -2
3028 433 4 0.21 2.1654340500705196 2.3056909532898198 28.03868731161059 2 2 -1
403 58 4 0.21 9.45766078424733 1.983662032883754 32.797680053191684 4 1 2
3025 433 1 -0.497 3.0223988395375683 2.986423200892046 27.959903943483024 2 2 -1
1625 233 1 -0.497 1.4042820332893617 8.909866372436296 28.2502958534977 -2 1 -2
4897 700 4 0.21 9.0259284581265 10.682378492669299 32.62844550590282 3 0 -1
4640 663 6 0.173 6.254662452366255 8.582939907178552 29.74342502790785 0 -5 -2
1118 160 5 0.21 7.767077533720726 1.2900966578666102 29.094962453876065 -1 5 1
406 58 7 0.16 6.558431189141523 4.020435076675291 32.513386202881506 4 1 2
1628 233 4 0.21 1.3291333554722895 9.685773935715535 29.02773517360989 -2 1 -2
4899 700 6 0.173 8.535182155090183 9.110406163618174 30.844020561674554 3 0 -1
4898 700 5 0.21 10.325456642296817 11.386753661843642 31.496599063221055 3 0 -1
4635 663 1 -0.497 4.32997265923326 8.234331314386871 30.60303372866975 0 -5 -2
3030 433 6 0.173 3.9703079534194363 2.4747200427881015 29.83458792846321 2 2 -1
3027 433 3 -0.234 5.071238364060753 4.438133072636805 29.016948172581383 2 2 -1
404 58 5 0.21 8.648408853601296 3.5121085631987508 32.15649253799437 4 1 2
1916 274 5 0.21 11.309501303973532 6.0082150382592845 31.3167962955683 -3 2 1
557 80 4 0.21 1.315514483395527 7.986177300870776 31.552570870610914 -2 -3 0
1117 160 4 0.21 6.985710121444093 2.8284597855904985 30.04209618626262 -1 5 1
3026 433 2 -0.022 3.8933798522281364 3.1137650361339 28.984259892513492 2 2 -1
1116 160 3 -0.234 10.331896075249555 2.4574922376507438 28.451823905701957 -1 5 1
400 58 1 -0.497 8.501645763603943 2.5990016342291806 32.72351446718645 4 1 2
2660 380 7 0.16 4.4227699389351525 0.9306296424177319 32.100660086304 1 3 4
1120 160 7 0.16 9.598436158917039 1.3668115822826088 28.28741108496052 -1 5 1
1630 233 6 0.173 3.4407876119387364 9.358147056891628 27.950159837731167 -2 1 -2
3198 457 6 0.173 8.912878334434293 8.009267984559084 27.95849510266732 -1 3 -1
2049 293 5 0.21 8.805277695052174 5.645730288416014 38.14678476314292 0 0 0
2124 304 3 -0.234 7.808824079280978 6.524883666637116 34.0857273789879 1 4 1
2208 316 3 -0.234 2.3372580326515626 4.1134119034475765 38.05125046506697 3 -1 1
3643 521 3 -0.234 3.9471174524974275 6.951955996587884 34.70583952685457 0 0 0
401 58 2 -0.022 7.477122771722735 2.2488339245204276 33.46416775094015 4 1 2
2623 375 5 0.21 5.8450020441996875 9.475230320046752 37.19473045594756 -1 1 3
2050 293 6 0.173 8.256170077998906 2.797160561644263 37.14779615093559 0 0 0
2048 293 4 0.21 7.138075510420888 4.817834505258174 38.10998414356329 0 0 0
2621 375 3 -0.234 8.483546868299593 10.354392423559489 36.75676654294035 -1 1 3
2210 316 5 0.21 4.114896120215986 6.431101640780789 37.47696459398181 3 -1 1
2619 375 1 -0.497 6.550361173485299 8.67965805964937 37.54383690428901 -1 1 3
2624 375 6 0.173 8.644181133466159 8.087815903571084 37.770805534500795 -1 1 3
2045 293 1 -0.497 8.211271629345475 4.748622783925501 38.049180538694465 0 0 0
2046 293 2 -0.022 8.801435936000932 3.64158885449962 37.586746801899345 0 0 0
2047 293 3 -0.234 10.560854104636217 3.5274528394468043 37.57754061324676 0 0 0
2123 304 2 -0.022 9.669560313736532 6.636920527468094 33.91368327613631 1 4 1
3641 521 1 -0.497 4.921460674737943 9.502342575979553 34.497925691536786 0 0 0
2620 375 2 -0.022 7.899366822361606 8.851559740530286 37.40491906938854 -1 1 3
3735 534 4 0.21 1.6614056717420338 4.395027329344804 33.41529747449408 0 1 1
402 58 3 -0.234 6.039705044723925 3.2519040446764675 33.3774658857969 4 1 2
2126 304 5 0.21 10.173397991101476 4.775973485888224 34.94254442179713 1 4 1
2622 375 4 0.21 6.114311994149684 7.741579014781152 37.840452863919474 -1 1 3
3808 544 7 0.16 4.618682099511632 11.454797901955262 38.12175896934852 0 0 -1
2212 316 7 0.16 2.5564559998504146 4.899009368305513 37.01867648549368 3 -1 1
3737 534 6 0.173 1.6524006492446397 2.3773957257725993 35.030491959572615 0 1 1
3646 521 6 0.173 2.8835204189368957 9.01294466458913 35.256102496839034 0 0 0
1582 226 7 0.16 4.457501032013251 1.6733786175621332 36.918880867232026 2 3 -4
3642 521 2 -0.022 3.853854088205973 8.700848583797061 34.91015593257275 0 0 0
2625 375 7 0.16 7.285375917937273 10.560719010770539 36.31485772473366 -1 1 3
3644 521 4 0.21 4.767377712625237 10.58513871107293 34.577708667667096 0 0 0
2128 304 7 0.16 7.7355283846206975 5.180855000025675 34.26611110679534 1 4 1
2122 304 1 -0.497 10.532779774304938 5.703848438729941 34.3798831750086 1 4 1
2051 293 7 0.16 10.590439657063088 4.66965546670858 38.33105640362123 0 0 0
3804 544 3 -0.234 3.376478192031706 11.063792982722513 37.96541836415641 0 0 -1
3647 521 7 0.16 5.206796924014358 6.865800021455338 34.32703287791597 0 0 0
2206 316 1 -0.497 4.235149576471866 6.075298310145096 38.55476671770385 3 -1 1
3645 521 5 0.21 5.84754297421444 8.980193431021963 34.111745457544465 0 0 0
405 58 6 0.173 7.447033601832994 1.3586685377583194 34.12393271597924 4 1 2
2125 304 4 0.21 11.590546780851016 5.618984977105847 34.11113204202764 1 4 1
2127 304 6 0.173 10.093009499104536 7.518959746017828 33.424001098944125 1 4 1
2211 316 6 0.173 3.714120186964314 4.676749016374464 40.063281312171135 3 -1 1
1981 283 7 0.16 2.6703437020389384 2.169347955041818 42.91340034607891 -3 -1 -5
1591 228 2 -0.022 1.8911872578030064 7.653140460114118 41.375853475597786 3 2 2
1731 248 2 -0.022 6.830982348791599 10.370671688902581 40.63686134652258 1 2 -2
4774 682 7 0.16 5.6419173005234775 7.32046943801692 42.70840075808085 0 0 -2
4770 682 3 -0.234 6.5812029064954904 6.361622251412046 42.50868192455989 0 0 -2
1980 283 6 0.173 5.836034683480574 3.1292272585296583 43.17182739874786 -3 -1 -5
1977 283 3 -0.234 3.803885285187105 2.036735491901302 42.210015599872 -3 -1 -5
1590 228 1 -0.497 2.9730326940447185 7.126857149512516 41.990908203862595 3 2 2
1592 228 3 -0.234 1.6797050932220585 9.369252672093218 41.281092713158706 3 2 2
1594 228 5 0.21 3.628761746622669 7.856933519083877 42.409974060269775 3 2 2
3229 462 2 -0.022 9.135837155503692 3.961306080279059 41.591377602388675 3 6 -2
4281 612 4 0.21 11.052272518292725 1.3140013986317167 40.05102376221403 2 0 -2
4528 647 6 0.173 11.68021472516054 6.215681965841648 42.03420909782519 0 5 0
1593 228 4 0.21 3.262875486223649 6.063556103015703 41.984804225783584 3 2 2
4973 711 3 -0.234 10.703324495888893 8.927066473781288 39.46486424165312 0 1 0
4769 682 2 -0.022 8.044896545333252 7.215296322333483 42.972106704173946 0 0 -2
4317 617 5 0.21 10.316866954056428 11.686560139582404 42.178825623261474 -3 3 -2
3232 462 5 0.21 7.986434577422493 2.1230948196491353 41.760173482055826 3 6 -2
4526 647 4 0.21 10.84774594873884 8.700566008235272 42.46456587696887 0 5 0
1730 248 1 -0.497 7.327280461699693 11.52962022869139 40.18274429384627 1 2 -2
1735 248 6 0.173 7.259895431005996 9.389553566310752 40.339641761419294 1 2 -2
4773 682 6 0.173 8.90545657665541 6.500234356960842 42.959064734531815 0 0 -2
3228 462 1 -0.497 8.342452949845882 2.984826910929006 41.14773886658337 3 6 -2
3231 462 4 0.21 7.7050414587687435 3.049445249120511 40.19937439559804 3 6 -2
1976 283 2 -0.022 4.752162007086164 3.029420048770247 43.34280471312431 -3 -1 -5
1580 226 5 0.21 5.285299668311188 1.6859991212591814 39.005756748200135 2 3 -4
1732 248 3 -0.234 5.301883133473571 10.406229150614173 41.51209450740968 1 2 -2
3230 462 3 -0.234 9.512335988228973 3.9934477127005987 43.332861032361656 3 6 -2
3233 462 6 0.173 9.443637582620713 4.73323124761652 40.925380655391294 3 6 -2
1733 248 4 0.21 8.345670957897218 11.620513418278467 39.808097540476865 1 2 -2
1596 228 7 0.16 2.5798184524979133 9.58660095883328 42.247667987227565 3 2 2
2209 316 4 0.21 4.984612686811368 6.588684792932837 39.158912635021025 3 -1 1
3234 462 7 0.16 9.641661327235516 2.6261008136435366 43.36388820070745 3 6 -2
1595 228 6 0.173 1.112805528707123 7.0277695375022695 40.82114950417442 3 2 2
2207 316 2 -0.022 3.5741217075317575 5.008060578339078 39.019308323933316 3 -1 1
4771 682 4 0.21 8.863638970144056 8.95151448188502 43.896834783829426 0 0 -2
4768 682 1 -0.497 7.948040325517445 8.51494264469293 43.43926284046137 0 0 -2
4772 682 5 0.21 7.069753492796467 9.180851335496683 43.543007721221386 0 0 -2
3402 486 7 0.16 11.294734535502034 1.5812966463470661 43.776368754923226 0 2 -2
1736 248 7 0.16 5.281988986614296 11.680304611572216 41.38963253544862 1 2 -2
4316 617 4 0.21 10.491243165394279 11.26070901448583 44.02797213540689 -3 3 -2
4977 711 7 0.16 10.331015595841793 9.994234191933248 38.7177963392691 0 1 0
1695 243 1 -0.497 9.106718362006653 13.351055735459727 4.34498325872311 1 3 3
2263 324 2 -0.022 11.493498199476935 20.3025396365756 6.025500266058508 2 0 -5
842 121 2 -0.022 10.586567681031955 22.088658155210357 1.3072875548883895 -3 1 0
3786 541 6 0.173 3.892276535600413 17.228711944386124 1.1567721159798041 0 0 1
843 121 3 -0.234 8.962626692239152 21.70549138160854 2.162014247544377 -3 1 0
292 42 5 0.21 10.353398886907618 16.78615442582825 3.720821925751431 -3 -5 2
3993 571 3 -0.234 6.81889031071465 16.622012976073865 1.9372385511401187 -1 1 3
3997 571 7 0.16 6.159505510657516 17.176286276517818 2.8816848676064506 -1 1 3
2267 324 6 0.173 11.410409426297 20.80643586846055 5.002626253302313 2 0 -5
2629 376 4 0.21 2.241509218653213 14.05994005670636 5.039562813058261 -1 -1 -1
2516 360 3 -0.234 5.420274816167822 22.233577952002197 4.473676822290683 2 -1 1
359 52 2 -0.022 3.4641457935808075 12.67946439634659 1.3531661099572945 -1 0 0
2515 360 2 -0.022 4.9961013918568815 20.98922965510195 5.660679946509281 2 -1 1
3995 571 5 0.21 6.156975820398347 19.187814019853796 2.897469143221733 -1 1 3
358 52 1 -0.497 2.247928881033048 12.196148877071481 0.9908090363021623 -1 0 0
3781 541 1 -0.497 3.057715918929202 18.671413888825693 2.648302958460122 0 0 1
2514 360 1 -0.497 5.981839452004482 20.38834033733254 6.299457520901517 2 -1 1
3782 541 2 -0.022 3.093809880042848 17.970036486924243 1.4808931114363477 0 0 1
361 52 4 0.21 1.633232304373582 11.820974543011616 1.6743192002100356 -1 0 0
3992 571 2 -0.022 6.848479443735242 18.187879758013587 1.1002067287640909 -1 1 3
2519 360 6 0.173 3.899762517951661 20.81683277547885 5.806561028360769 2 -1 1
1701 243 7 0.16 7.193027791468817 14.63693595365269 3.4046596748732743 1 3 3
3991 571 1 -0.497 6.3334653024265 19.215983794570228 1.8167468741346742 -1 1 3
3785 541 5 0.21 2.320773787684696 19.45826187882388 2.8832887822465096 0 0 1
363 52 6 0.173 3.8492561953628295 12.603511875789808 2.415500715520685 -1 0 0
3994 571 4 0.21 6.3221420733561535 20.279938068766985 1.5377497666912219 -1 1 3
1699 243 5 0.21 8.817323714834666 13.210090936545328 3.254288027985339 1 3 3
3784 541 4 0.21 3.8506129935836637 18.38586222600313 3.4198932268466518 0 0 1
1698 243 4 0.21 10.05441833398384 12.936423280903972 4.710780830223946 1 3 3
1697 243 3 -0.234 6.704005434358376 14.414097973858198 4.6568520111745135 1 3 3
1696 243 2 -0.022 8.191675704956905 13.705928445808306 5.278311723464389 1 3 3
291 42 4 0.21 9.848482646399559 17.029271996207452 1.983349888601718 -3 -5 2
288 42 1 -0.497 10.573059515856325 16.59472443560092 2.6865242732856274 -3 -5 2
2518 360 5 0.21 7.029960376738598 20.605748806614507 6.131000456090217 2 -1 1
2520 360 7 0.16 6.685570227221492 21.960598988541218 4.716481584965486 2 -1 1
2626 376 1 -0.497 2.097488958579011 13.645707799929431 6.0963838396878005 -1 -1 -1
2630 376 5 0.21 2.2546864513544937 12.586348453302874 6.235960143812392 -1 -1 -1
1700 243 6 0.173 8.371429564482732 13.568340613103883 6.290407291402275 1 3 3