LAMMPS data file via write_data, version 29 Aug 2024, timestep = 1000000, units = real

6656 atoms
13 atom types
6144 bonds
12 bond types
10752 angles
21 angle types
12288 dihedrals
24 dihedral types

0.5868115606456783 44.41318843933996 xlo xhi
0.5868115606456783 44.41318843933996 ylo yhi
0.5868115606456783 44.41318843933996 zlo zhi

Masses

1 12.011
2 12.011
3 12.011
4 14.007
5 1.008
6 1.008
7 1.008
8 1.008
9 1.008
10 1.008
11 1.008
12 1.008
13 1.008

Pair Coeffs # lj/charmmfsw/coul/long

1 0.078 3.65268 0.01 3.38542
2 0.055999 3.58141 0.01 3.38542
3 0.055999 3.58141 0.01 3.38542
4 0.06 3.54578 0.06 3.54578
5 0.024001 2.38761 0.024001 2.38761
6 0.024001 2.38761 0.024001 2.38761
7 0.024001 2.38761 0.024001 2.38761
8 0.035 2.38761 0.035 2.38761
9 0.035 2.38761 0.035 2.38761
10 0.035 2.38761 0.035 2.38761
11 0.035 2.38761 0.035 2.38761
12 0.01 1.55907 0.01 1.55907
13 0.01 1.55907 0.01 1.55907

Bond Coeffs # harmonic

1 222.5 1.528
2 222.5 1.53
3 263 1.474
4 322 1.111
5 322 1.111
6 322 1.111
7 309 1.111
8 309 1.111
9 309 1.111
10 309 1.111
11 453.1 1.014
12 453.1 1.014

Angle Coeffs # charmm

1 58 115 8 2.561
2 60 120 0 0
3 34.6 110.1 22.53 2.179
4 34.6 110.1 22.53 2.179
5 34.6 110.1 22.53 2.179
6 34.6 110.1 22.53 2.179
7 34.6 110.1 22.53 2.179
8 26.5 110.1 22.53 2.179
9 26.5 110.1 22.53 2.179
10 41 112.1 0 0
11 41 112.1 0 0
12 35.5 108.4 5.4 1.802
13 35.5 109 5.4 1.802
14 32.4 109.5 50 2.14
15 35.5 108.4 5.4 1.802
16 35.5 109 5.4 1.802
17 32.4 109.5 50 2.14
18 42 105.85 0 0
19 26.5 110.1 22.53 2.179
20 35.5 108.4 5.4 1.802
21 26.5 110.1 22.53 2.179

Dihedral Coeffs # charmmfsw

1 0.3 3 0 1
2 0.16 3 0 1
3 0.8 3 0 1
4 0.22 3 0 1
5 0.22 3 0 1
6 0.125 3 0 1
7 0.18 3 0 1
8 0.01 3 0 1
9 0.16 3 0 1
10 0.16 3 0 1
11 0.16 3 0 1
12 0.01 3 0 1
13 0.22 3 0 1
14 0.125 3 0 1
15 0.22 3 0 1
16 0.01 3 0 1
17 0.16 3 0 1
18 0.16 3 0 1
19 0.16 3 0 1
20 0.16 3 0 1
21 0.16 3 0 1
22 0.18 3 0 1
23 0.01 3 0 1
24 0.8 3 0 1

Atoms # full

2736 211 6 0.09 3.934438892564044 2.056209321083493 5.230729788180662 -1 1 3
6139 473 3 0.08699999999999999 4.458304422682707 7.431395488303602 0.7648832138604489 3 5 -2
672 52 9 0.09 9.937292115630449 5.625576441764231 4.02089633218762 -1 0 -1
665 52 2 -0.189 9.423606829417338 5.562415241308305 3.010727679026477 -1 0 -1
2663 205 11 0.09 10.654134216856118 3.326652001253127 11.515847950817697 3 1 4
6138 473 2 -0.189 5.173249456308327 6.282595022329884 1.6135888946866461 3 5 -2
2735 211 5 0.09 4.768272186666544 2.8543920467018173 6.641046780313986 -1 1 3
2732 211 2 -0.189 5.216040969525571 0.807662950628724 6.471889708262565 -1 1 3
2739 211 9 0.09 6.247941512625955 0.7908269903575612 7.032285826255107 -1 1 3
3598 277 10 0.09 9.7849235564336 2.132004916181181 2.0135477665651633 3 4 1
668 52 5 0.09 8.232796503923355 4.231529255999523 4.05561506079984 -1 0 -1
669 52 6 0.09 7.564242865905225 4.4552955741903455 2.4078491615066797 -1 0 -1
5240 404 1 -0.281 2.8744781384855105 3.5235575532249337 10.480280104538178 -1 3 3
5242 404 3 0.08699999999999999 3.213539247123953 1.1944571323241875 11.435682450858556 -1 3 3
5250 404 11 0.09 2.150045148953283 0.8897050980191118 11.335729243353383 -1 3 3
1993 154 4 -0.877 2.0115735857471435 6.582474512051909 7.220504627656875 -1 -3 -1
5249 404 10 0.09 3.627272315429426 1.031019747197818 10.421995589666954 -1 3 3
671 52 8 0.09 10.014628725712376 4.827612095889608 2.3825006118446863 -1 0 -1
1999 154 10 0.09 1.282601388209439 5.364183371530064 8.777193765925086 -1 -3 -1
2002 154 13 0.315 1.9579136204414112 7.38811467044606 7.8725424953846925 -1 -3 -1
5244 404 5 0.09 3.318263444888996 4.553577632275413 10.387277652309418 -1 3 3
5246 404 7 0.09 3.1112393610917746 3.032815940324147 9.505306389912569 -1 3 3
5211 401 11 0.09 8.163548288185932 0.9459692931314082 9.470521955912226 0 0 0
674 52 11 0.09 10.27276091169936 7.107456585404902 1.8687962043644464 -1 0 -1
4922 379 8 0.09 8.46445039003875 2.8161105921930525 7.2552038287143885 -3 -1 -3
4918 379 4 -0.877 8.099779448903382 5.520328438065871 6.6985976188240395 -3 -1 -3
1992 154 3 0.08699999999999999 1.1889005316032644 5.439969002661674 7.694280304031684 -1 -3 -1
6144 473 8 0.09 5.294283055849554 5.479246366363794 0.8393289833488506 3 5 -2
670 52 7 0.09 7.320470417671614 5.786825311996569 3.615952053971718 -1 0 -1
4925 379 11 0.09 9.308399207804891 5.029851036265633 8.302029866621385 -3 -1 -3
2731 211 1 -0.281 4.884726058175954 2.113253429088476 5.856017753799803 -1 1 3
1998 154 9 0.09 2.540877480256416 3.7840678741196703 7.263529969105114 -1 -3 -1
4916 379 2 -0.189 9.322419064033168 3.3313293913298434 6.906920784692203 -3 -1 -3
6141 473 5 0.09 3.2458581161902718 5.851163992164948 2.4856112667774277 3 5 -2
3254 251 4 -0.877 10.58266230803055 7.212083445240723 11.286732409883546 2 0 1
4923 379 9 0.09 9.429998291359153 3.0577542172701464 5.833458905731563 -3 -1 -3
5363 413 7 0.09 1.759706030371182 1.4236264454287406 1.3867577413817302 6 1 -1
5245 404 6 0.09 1.7685009003794507 3.520503708799281 10.613004986388884 -1 3 3
666 52 3 0.08699999999999999 9.261711479292321 6.90662227612572 2.338840588216289 -1 0 -1
664 52 1 -0.281 7.99492035130872 4.969640868717772 3.3365108153228102 -1 0 -1
4926 379 12 0.315 8.108494200740722 5.667386671311082 5.6664280610431135 -3 -1 -3
6145 473 9 0.09 6.158539702602122 6.679284996745292 1.9148458849285723 3 5 -2
4917 379 3 0.08699999999999999 9.320715477247806 4.818641192808552 7.251039630263629 -3 -1 -3
2737 211 7 0.09 5.772336704211017 2.4014137805409663 5.254477559973134 -1 1 3
4927 379 13 0.315 7.198498371903285 5.085001464799563 6.856669232267123 -3 -1 -3
5210 401 10 0.09 6.651464909212499 1.1259412946773502 10.376068960994854 0 0 0
6142 473 6 0.09 4.367197053762272 6.775159760921299 3.4696716716229483 3 5 -2
5203 401 3 0.08699999999999999 7.6549943939797656 0.6778110127489744 10.439044045835724 0 0 0
4924 379 10 0.09 10.298050544216064 5.263070728983106 6.876940798402883 -3 -1 -3
4915 379 1 -0.281 10.571233276391217 2.640906674551266 7.558701996548981 -3 -1 -3
4919 379 5 0.09 10.754789177501454 3.1346041775980393 8.523815669190371 -3 -1 -3
673 52 10 0.09 8.430399171588945 6.85370247855589 1.561315523688993 -1 0 -1
5365 413 9 0.09 3.889035055977537 1.2855346930991898 0.7943762420468601 6 1 -1
1504 116 9 0.09 10.968230173160805 7.5042443074020655 6.984327906024209 4 0 -1
5364 413 8 0.09 4.163944196717921 0.6385805170056531 2.2928803207613786 6 1 -1
1996 154 7 0.09 0.921050339828055 2.0229080811182136 6.805531396371248 -1 -3 -1
3593 277 5 0.09 8.85635478756996 1.2410472500356085 4.928461193356654 3 4 1
1991 154 2 -0.189 1.4748566615840408 4.09302981956942 7.050049930170654 -1 -3 -1
4920 379 6 0.09 11.399292361338384 2.8066573765371436 6.845345294553431 -3 -1 -3
6137 473 1 -0.281 4.3366630285166945 5.902014098014007 2.771906246319397 3 5 -2
6143 473 7 0.09 4.66425931637461 5.004000866052275 3.310063422960956 3 5 -2
2001 154 12 0.315 1.8341658405100763 6.9542496632929325 6.273185289273584 -1 -3 -1
2664 205 12 0.315 11.49904863830021 1.028094957958297 10.306195971690025 3 1 4
3594 277 6 0.09 10.531449119436937 0.9764838430307001 4.40901698014104 3 4 1
3262 251 12 0.315 11.300893114943124 6.534416088013127 11.251665463390687 2 0 1
3591 277 3 0.08699999999999999 8.800902391614963 1.6658577463003552 2.0948238232909038 3 4 1
3599 277 11 0.09 8.043453808311193 2.174960048255411 2.728282074351081 3 4 1
4921 379 7 0.09 10.415150380920366 1.5352563990083108 7.794195926797215 -3 -1 -3
1997 154 8 0.09 1.4637502301289598 4.236985457717201 5.90955664823704 -1 -3 -1
3592 277 4 -0.877 8.304047009167292 1.564942299042439 0.6753869663348818 3 4 1
2656 205 4 -0.877 11.478629719110764 1.291320179097443 11.284486204840443 3 1 4
4911 378 10 0.09 7.368879403565684 10.442853097764017 9.435696067940782 1 4 4
1502 116 7 0.09 10.390452409099684 9.289782960356593 8.535443156266943 4 0 -1
5478 422 5 0.09 0.7668391566755629 9.231734432720984 5.525087638118406 0 0 1
638 50 1 -0.281 2.528686137047551 13.94727539655246 2.082047146439285 1 2 -1
641 50 4 -0.877 2.2970917959065034 13.401607485412788 5.23372654568335 1 2 -1
4913 378 12 0.315 6.405894936228709 9.607209430766684 11.133792663634546 1 4 4
6146 473 10 0.09 4.355298194042288 8.294924198650214 1.38387984721841 3 5 -2
5639 434 10 0.09 5.330123038861611 11.522132554167573 0.6128230854084181 5 -1 3
650 50 13 0.315 2.078228335812528 12.56187958227548 4.6632911991006045 1 2 -1
675 52 12 0.315 8.010593253025654 7.917027138041646 3.529265128861965 -1 0 -1
676 52 13 0.315 9.411683480973053 8.062002207673164 4.090990626173445 -1 0 -1
667 52 4 -0.877 8.936101822892777 7.936061695043526 3.2300653825412193 -1 0 -1
5751 443 5 0.09 0.8823946154359986 9.70332770131334 2.0511375401188685 -2 2 -6
5752 443 6 0.09 1.3623861518289093 8.618500583680355 0.7438850506014791 -2 2 -6
4904 378 3 0.08699999999999999 7.222385402837534 11.191685581104181 10.321274652772955 1 4 4
640 50 3 0.08699999999999999 2.097933463277944 14.685611284187047 4.547878816572411 1 2 -1
4909 378 8 0.09 8.342709726470474 12.81212747400737 11.125859209284862 1 4 4
4903 378 2 -0.189 8.488054230427952 11.99072229720821 10.403938241586223 1 4 4
1276 99 2 -0.189 2.8920218444046135 10.33312831519818 10.518239143342502 5 5 1
644 50 7 0.09 1.4850349656564166 13.561064795113303 2.162464414937111 1 2 -1
5479 422 6 0.09 1.5931352428657415 9.863049344754511 6.980480051355076 0 0 1
1279 99 5 0.09 2.830016496213076 8.473367254118745 9.500505116312315 5 5 1
643 50 6 0.09 2.507317300968116 14.446582208557114 1.117341074615156 1 2 -1
1280 99 6 0.09 1.4257372303091695 8.666916193453572 10.635926647957744 5 5 1
6214 478 13 0.315 6.02385957994857 13.744680371801527 10.626130804117592 6 -5 5
5474 422 1 -0.281 0.7072040518805046 9.97376199258651 6.380886119946746 0 0 1
6211 478 10 0.09 3.4062734862107233 15.132120792336561 11.484340017187492 6 -5 5
4912 378 11 0.09 6.336183740082443 11.822076951009297 10.104323200880906 1 4 4
5747 443 1 -0.281 0.9374465986513572 8.67103084450787 1.7916883229076552 -2 2 -6
4910 378 9 0.09 9.350273493119381 11.487221066819798 10.711551213827008 1 4 4
1286 99 12 0.315 1.456100300929573 12.911096116360264 9.61807818089884 5 5 1
1275 99 1 -0.281 2.5527636007900565 8.83412962612764 10.480690152696015 5 5 1
1285 99 11 0.09 0.8695525933107324 10.76231816508804 10.652972955676189 5 5 1
1283 99 9 0.09 3.7456552765370756 10.47443257648709 11.175865487239147 5 5 1
1277 99 3 0.08699999999999999 1.7562503373026923 11.227031099424241 10.990041064236868 5 5 1
6205 478 4 -0.877 5.4231222487203325 14.561737990815303 10.654326313587365 6 -5 5
1278 99 4 -0.877 1.7138489820195975 12.672405480191697 10.619755758722599 5 5 1
4908 378 7 0.09 9.708751205833329 13.146329667780469 9.042219292765251 1 4 4
4906 378 5 0.09 7.927751667431138 13.166541823705133 8.690582907997186 1 4 4
649 50 12 0.315 3.2163972858815115 13.212683404025405 5.546209633805868 1 2 -1
1503 116 8 0.09 11.314496893378154 9.143976890412306 6.370162827616436 4 0 -1
4907 378 6 0.09 8.877779076898246 11.761267700644323 8.273385322485048 1 4 4
5636 434 7 0.09 7.227612660021887 9.84801860120232 1.2449331212561527 5 -1 3
4902 378 1 -0.281 8.789195797109473 12.543343658810457 9.013845939956669 1 4 4
4905 378 4 -0.877 6.934249775005257 10.370785997231362 11.535560348033624 1 4 4
642 50 5 0.09 3.293586108879003 13.13087570738248 2.0182364638267902 1 2 -1
2570 198 9 0.09 11.131781641666196 14.649733054099285 6.258225522161523 2 3 5
1282 99 8 0.09 3.135799810438402 10.54465267891297 9.449210968896633 5 5 1
5753 443 7 0.09 1.773352339331352 8.327486756881278 2.482661111962578 -2 2 -6
1287 99 13 0.315 2.532961785018576 13.214404864830774 10.756861888826107 5 5 1
1501 116 6 0.09 11.449889005355974 8.214290084385254 9.293938250518309 4 0 -1
639 50 2 -0.189 2.78210664992054 14.974471868140368 3.211427800966099 1 2 -1
647 50 10 0.09 0.9699550712803189 14.651634774351155 4.390212094199114 1 2 -1
4444 342 11 0.09 11.284737631319805 14.960283197978198 2.287129905774975 4 5 10
1281 99 7 0.09 3.0484519365440157 8.319755282746874 11.301769504908387 5 5 1
3263 251 13 0.315 11.02965833178405 8.102143036967949 11.394508560366695 2 0 1
1496 116 1 -0.281 11.419530261515927 8.934997604095962 8.439292085403522 4 0 -1
646 50 9 0.09 3.850358877864513 15.011357203303513 3.298645639373829 1 2 -1
3090 238 9 0.09 3.8734952454469935 4.588428906626118 17.977480099380475 1 4 -2
5354 412 11 0.09 9.429896653158078 1.3690429475736798 14.257867249912888 2 5 3
5355 412 12 0.315 7.251692812382688 2.4266903830082627 13.652811586474767 2 5 3
5345 412 2 -0.189 9.417953355511502 1.8245656870299212 16.316310172046162 2 5 3
5351 412 8 0.09 10.046690345463743 2.75447650413675 16.196047297534317 2 5 3
3093 238 12 0.315 5.516347873845566 2.5585244068300885 16.376079672664524 1 4 -2
3085 238 4 -0.877 4.691772810605842 2.2015340574407585 16.834091716101756 1 4 -2
3641 281 1 -0.281 4.243583387808833 0.7615893639587769 21.699056381607797 1 3 -4
5356 412 13 0.315 8.054821192719238 3.584692502029976 14.620406198335377 2 5 3
3092 238 11 0.09 2.6045015113994943 2.038138533152414 16.77971461922095 1 4 -2
3094 238 13 0.315 4.938834303547314 1.9522029115757566 17.716660884544844 1 4 -2
5346 412 3 0.08699999999999999 8.570906877880233 1.5453830377113424 15.017104769434116 2 5 3
5352 412 9 0.09 8.757830916479412 1.9564212905598024 17.214187233422532 2 5 3
5347 412 4 -0.877 7.655051022968514 2.6355787984725647 14.564655637899662 2 5 3
3089 238 8 0.09 3.4254022234752846 3.1807101776625175 18.90734188294301 1 4 -2
3251 251 1 -0.281 11.220308967241454 7.647500944820393 14.344270251132807 2 0 1
3084 238 3 0.08699999999999999 3.3682299265854976 2.8780406445329727 16.83433540601977 1 4 -2
3082 238 1 -0.281 1.708471819221914 4.488678884885811 18.212808962647713 1 4 -2
5204 401 4 -0.877 8.434422415372904 1.1886915498949961 11.564841697015252 0 0 0
3083 238 2 -0.189 3.152724808281694 3.805223272050105 18.041929054934098 1 4 -2
3091 238 10 0.09 3.2875930439900194 3.4832136088602272 15.908056041908486 1 4 -2
5212 401 12 0.315 8.528790761495898 2.2075820619812596 11.613806392147358 0 0 0
3087 238 6 0.09 1.6374173508217782 5.12734406844065 19.127479338527465 1 4 -2
4881 376 6 0.09 8.068743216928691 2.4076645143669158 21.340946133247982 1 -1 -4
5344 412 1 -0.281 10.469061297586784 0.7741791744302483 16.617630763485934 2 5 3
4882 376 7 0.09 8.879279850604425 2.5924627641007163 19.812306581520154 1 -1 -4
4876 376 1 -0.281 8.388751602481705 3.145962847761732 20.620071441339466 1 -1 -4
3086 238 5 0.09 1.6350911229627505 5.279700602321712 17.467443290748264 1 4 -2
6422 494 13 0.315 2.7363385008596346 5.432909290688925 21.535328308635872 -2 2 -2
4883 376 8 0.09 10.442898053597185 3.4853114477239013 21.35756008733272 1 -1 -4
4884 376 9 0.09 9.215817398028438 4.64525146721167 21.980683162791205 1 -1 -4
4886 376 11 0.09 10.071735592833116 4.6383324981908505 19.045585126960084 1 -1 -4
4880 376 5 0.09 7.53582153222605 3.779401359779488 20.258453118170035 1 -1 -4
4878 376 3 0.08699999999999999 9.931479552955498 5.069306683818927 20.05085452458806 1 -1 -4
4885 376 10 0.09 9.078369826844277 5.740829575898514 19.89876202575703 1 -1 -4
4877 376 2 -0.189 9.553141214724034 4.046296868797791 21.094014775111553 1 -1 -4
3261 251 11 0.09 8.859422620194094 6.376920996792882 12.043235903565343 2 0 1
3259 251 9 0.09 10.532515517344944 5.75274683062208 13.442174542396018 2 0 1
3088 238 7 0.09 0.8689731054469347 3.7451485890351464 18.146414195935204 1 4 -2
3258 251 8 0.09 9.313664259383035 6.6258130567547955 14.426893046717854 2 0 1
3647 281 7 0.09 3.621587321559167 1.6057189801074412 21.40430961707336 1 3 -4
3253 251 3 0.08699999999999999 9.608317423918695 7.154005131579996 12.339343268525518 2 0 1
40 4 1 -0.281 1.33765498374283 7.461871997127655 15.553410645621303 5 -3 2
1703 131 13 0.315 11.21670313401207 7.465419961756524 22.158400464215756 -4 0 5
4888 376 13 0.315 11.361555827193618 6.261627954536642 19.399868225868584 1 -1 -4
4879 376 4 -0.877 11.183999424076362 5.815233730253538 20.258971732778846 1 -1 -4
3648 281 8 0.09 5.69999829982382 1.554023958381102 20.613018854975966 1 3 -4
6413 494 4 -0.877 3.0659010320749718 4.514738022930226 21.784497009973894 -2 2 -2
5248 404 9 0.09 4.613261624665725 2.925672032524446 11.749918192822777 -1 3 3
45 4 6 0.09 2.2403900531483574 7.3460217920017925 14.931875612951778 5 -3 2
6421 494 12 0.315 3.1712002323480846 4.026587541325242 20.904404027632737 -2 2 -2
44 4 5 0.09 0.9525039327187882 6.587352847677927 16.047670801284482 5 -3 2
3252 251 2 -0.189 10.155331839847175 6.757470021944711 13.715888916352949 2 0 1
5247 404 8 0.09 2.998086670033926 3.01694325257076 12.638518421105656 -1 3 3
5349 412 6 0.09 10.818665813626573 0.9681085087398336 17.606382747338248 2 5 3
2661 205 9 0.09 11.4485755208552 2.7689434627726155 13.710256267371967 3 1 4
5241 404 2 -0.189 3.4579566689363244 2.7245997251769505 11.640888214087258 -1 3 3
5350 412 7 0.09 11.308733781432823 0.9564841717056882 15.922845077907112 2 5 3
3255 251 5 0.09 11.369466576054672 7.281305407084674 15.396816788656755 2 0 1
5252 404 13 0.315 3.7419140573760683 0.634363439349868 13.396629928226087 -1 3 3
5213 401 13 0.315 9.380647062260342 0.9334925108168981 11.685162240837142 0 0 0
1412 109 8 0.09 0.962914869257508 11.25686786740798 20.43535106661894 3 5 0
2126 164 7 0.09 6.029622030376368 11.37295252723261 17.485911687937037 5 -3 4
6204 478 3 0.08699999999999999 4.435102235859558 14.726303477548758 11.715747708139302 6 -5 5
912 71 2 -0.189 6.502834801463345 11.876496160846639 22.14325853252645 1 -1 -2
2125 164 6 0.09 7.175546112446033 10.077362580673595 18.276990273123417 5 -3 4
1284 99 10 0.09 1.8095603510402556 11.103416296242104 12.109456988133722 5 5 1
2120 164 1 -0.281 6.435065086547742 10.294717508139986 17.53717564205509 5 -3 4
918 71 8 0.09 5.9473785036007225 10.990920270313987 21.800598794674087 1 -1 -2
2131 164 12 0.315 5.17832293374651 11.336827136515216 19.276606108968046 5 -3 4
1204 93 8 0.09 11.105446876914675 12.443187734779162 12.350683611341978 1 3 1
49 4 10 0.09 1.0589884258046494 10.71607728196451 16.95877026714704 5 -3 2
3260 251 10 0.09 9.078797200694105 8.200574955101354 12.45445483774299 2 0 1
2127 164 8 0.09 5.836308522430871 8.209692246300737 17.735773973831645 5 -3 4
2128 164 9 0.09 4.594901275608131 9.323357599406737 16.97826784852527 5 -3 4
2121 164 2 -0.189 5.364968612010586 9.221889381048578 17.773827224145492 5 -3 4
47 4 8 0.09 2.363027814113418 8.716552793278822 16.985518675664952 5 -3 2
41 4 2 -0.189 1.3901544197440787 8.630797652903459 16.62961156397476 5 -3 2
2123 164 4 -0.877 4.292182292804153 10.758109907788617 19.28537629475045 5 -3 4
2122 164 3 0.08699999999999999 4.706303971309794 9.393585190718795 19.14640266053845 5 -3 4
2124 164 5 0.09 6.844768535223762 10.174158922151667 16.50478136644586 5 -3 4
2132 164 13 0.315 3.641676284436458 11.131450239875406 18.586997925418586 5 -3 4
2129 164 10 0.09 5.520118498520161 9.221904923836775 19.91661314928997 5 -3 4
51 4 12 0.315 2.6924839083101997 10.259319429099076 14.99207007183792 5 -3 2
1700 131 10 0.09 9.003709744371953 8.614773744670654 21.738421963484086 -4 0 5
1699 131 9 0.09 9.940443025561747 10.892480137738795 21.27079726284491 -4 0 5
48 4 9 0.09 0.7918125126973423 8.412149781367283 17.492893265006774 5 -3 2
6207 478 6 0.09 3.6527914241200947 14.53790425734263 14.51358111796255 6 -5 5
3256 251 6 0.09 10.980812415504895 8.729355194497343 14.185987781160646 2 0 1
6212 478 11 0.09 4.2509972129178 13.673226049710612 12.089671281241593 6 -5 5
6209 478 8 0.09 5.862716088723957 14.92240396554813 13.24455286387027 6 -5 5
42 4 3 0.08699999999999999 0.9760210528355954 9.985301166000138 16.090517304642944 5 -3 2
2130 164 11 0.09 3.820170462463756 8.654713654108384 19.288111354089974 5 -3 4
1693 131 3 0.08699999999999999 9.926715282144993 9.034863189441035 22.265892975211592 -4 0 5
6374 491 4 -0.877 10.455526357734863 13.935877421513071 16.486567774959852 1 -7 4
920 71 10 0.09 7.50477440060439 12.288670858668016 20.278954069083937 1 -1 -2
1698 131 8 0.09 10.643796818840197 9.614247408654167 20.344930423399394 -4 0 5
4914 378 13 0.315 6.476284483899878 10.852033293422968 12.335844350978455 1 4 4
923 71 13 0.315 5.886250745398366 14.537265724885154 20.856783844372906 1 -1 -2
922 71 12 0.315 5.094238907580785 13.367129892349388 20.294144814295514 1 -1 -2
52 4 13 0.315 1.6612737519147782 11.492611967520128 14.878486704838785 5 -3 2
6382 491 12 0.315 10.133295273539622 13.626090246454993 15.553168219561783 1 -7 4
921 71 11 0.09 7.929513846279081 13.43855443243014 21.335376179854528 1 -1 -2
6383 491 13 0.315 9.702511358297418 13.744586275231736 17.069455266590285 1 -7 4
914 71 4 -0.877 6.0108508640157 13.732356003765652 20.3261274309599 1 -1 -2
1692 131 2 -0.189 10.566363583938024 10.014089033170915 21.36910267020693 -4 0 5
913 71 3 0.08699999999999999 6.997936699512434 12.871085956368118 21.044361544069467 1 -1 -2
43 4 4 -0.877 1.698798102850538 10.478164837446789 14.915442952548863 5 -3 2
1409 109 5 0.09 1.4086185854137787 13.852463815344054 20.46773547961045 3 5 0
1415 109 11 0.09 2.2502560459438774 11.849628827276975 22.212688899566395 3 5 0
5995 462 2 -0.189 7.2471661870858926 6.44358730053597 30.400863698813048 -1 1 0
5994 462 1 -0.281 7.198975348157455 5.0804836278067755 31.16812739661122 -1 1 0
5996 462 3 0.08699999999999999 5.959306723046881 6.9805385883994475 29.792992514207423 -1 1 0
5997 462 4 -0.877 4.9992562425457026 6.071135853835198 29.02825594946987 -1 1 0
113 9 9 0.09 2.106349482490919 7.624008455287787 25.47324701719119 -1 1 0
6002 462 9 0.09 7.876845965348032 7.15245243408066 30.997706069174036 -1 1 0
6005 462 12 0.315 5.353657752631557 5.661646701292016 28.205494554222582 -1 1 0
6001 462 8 0.09 7.905637249309919 6.140209258405458 29.527572825944148 -1 1 0
6006 462 13 0.315 4.710017610731416 5.253292422632336 29.64232784287316 -1 1 0
6004 462 11 0.09 5.2761627603307515 7.294672744439834 30.64977755928145 -1 1 0
6000 462 7 0.09 6.561381407656036 5.318882649836289 32.096460517533856 -1 1 0
5998 462 5 0.09 8.218351384376216 4.76120041241372 31.419651356127876 -1 1 0
3984 307 6 0.09 3.469304357474027 3.723394871251747 31.934768857210933 6 -4 1
5999 462 6 0.09 6.906145207351489 4.28207234373186 30.52028830733072 -1 1 0
6410 494 1 -0.281 4.640307528791755 4.521266563291432 25.367702396104534 -2 2 -2
6646 512 3 0.08699999999999999 8.033242421100951 3.541187246389956 26.438845854534414 3 1 -2
6416 494 7 0.09 4.509637510106705 5.177488005461093 26.270357110281424 -2 2 -2
6414 494 5 0.09 5.6509665711976895 4.819956745027163 24.922897725304477 -2 2 -2
6412 494 3 0.08699999999999999 4.06573658128894 4.443586667658139 22.888289998273596 -2 2 -2
6654 512 11 0.09 9.073030514400756 3.730917041817934 26.61372903586356 3 1 -2
6411 494 2 -0.189 3.5895172619018205 4.7683745275940375 24.28385712431559 -2 2 -2
3985 307 7 0.09 1.7398147203282506 3.1260656834245726 31.956872439877227 6 -4 1
6415 494 6 0.09 4.680627810395544 3.381699497166749 25.692122120138894 -2 2 -2
3987 307 9 0.09 1.1400444866739023 4.426601393101102 30.133847364389396 6 -4 1
6420 494 11 0.09 4.872523711829816 5.163869145222117 22.65535175255014 -2 2 -2
6419 494 10 0.09 4.487953956797028 3.403666105113716 22.891578334418423 -2 2 -2
6653 512 10 0.09 7.596273698784083 4.554994343933357 26.621938406639718 3 1 -2
3990 307 12 0.315 2.6638203033233236 4.666442268090299 27.5629055445669 6 -4 1
6417 494 8 0.09 3.33360170089918 5.864888565801229 24.384775626411976 -2 2 -2
3049 235 7 0.09 5.161540240774031 1.148358334492959 25.430075780093414 -2 -1 0
6652 512 9 0.09 8.094113651929963 4.1625378284322085 24.294797867729955 3 1 -2
6656 512 13 0.315 6.622306829572864 2.4571086327160057 27.398198749769733 3 1 -2
3989 307 11 0.09 3.7332952211026114 3.1445658317226655 29.00879864232004 6 -4 1
2960 228 9 0.09 11.273476061194366 5.950490199538642 27.123494072816577 0 -1 -4
6651 512 8 0.09 6.835585481067261 2.8904617795138723 24.7010264321978 3 1 -2
3986 307 8 0.09 2.5846970367743674 5.41196920534886 30.042289246296058 6 -4 1
6645 512 2 -0.189 7.887258871676016 3.2348852474536014 24.936173277263883 3 1 -2
6644 512 1 -0.281 8.808664225916415 2.0031747340002557 24.559670458576772 3 1 -2
4050 312 7 0.09 0.7241486134650881 0.8885683278266285 32.46092562623702 -1 1 0
3981 307 3 0.08699999999999999 2.635777377901587 3.349313947685188 29.12372104689328 6 -4 1
1388 107 10 0.09 10.590694338858375 4.074981805372801 32.42726586802837 -2 0 -1
3991 307 13 0.315 1.211389794011297 3.903849099906966 27.56701266121419 6 -4 1
3048 235 6 0.09 4.590383343758349 1.110925932425482 27.110887587646754 -2 -1 0
3988 307 10 0.09 1.9800660662480478 2.4720714857566146 29.440145815671247 6 -4 1
3982 307 4 -0.877 2.202606624519679 3.748483360760059 27.744319349043298 6 -4 1
6418 494 9 0.09 2.7001383753739443 4.125330192760451 24.516970422082693 -2 2 -2
3980 307 2 -0.189 2.1923171031709945 4.345403238020136 30.234229173632425 6 -4 1
3054 235 12 0.315 2.4693527212624917 1.2217642888778895 27.224279277688417 -2 -1 0
6649 512 6 0.09 9.866490279462596 2.230182057734331 24.74118067925951 3 1 -2
4405 339 11 0.09 0.7243379998648075 6.905369479497521 32.97219610043359 -1 0 0
4304 332 1 -0.281 11.295403888460484 0.8328631770463437 28.336457368670267 1 -7 1
1352 104 13 0.315 3.2997470747361475 7.773863577803757 31.999453755275585 -1 -2 0
3983 307 5 0.09 2.0566314328365345 4.814334099321901 32.47016919304739 6 -4 1
5535 426 10 0.09 6.677687688655203 6.946417275681975 24.62269952938032 0 -2 2
3645 281 5 0.09 4.718273162404313 1.0692021813701933 22.678730321263505 1 3 -4
6650 512 7 0.09 8.850985668873353 1.7552817069142985 23.427260824148643 3 1 -2
3979 307 1 -0.281 2.4076400121469073 3.9966986247628595 31.746347647693753 6 -4 1
4316 332 13 0.315 11.336714427697736 2.1290920340798936 30.823612120149715 1 -7 1
3055 235 13 0.315 0.9818951201617984 0.8675205114082049 26.617418604028234 -2 -1 0
105 9 1 -0.281 0.6959708110681724 7.231536453753392 27.077024128522662 -1 1 0
1381 107 3 0.08699999999999999 10.715445107960079 4.8635936555740065 33.28671827050732 -2 0 -1
4309 332 6 0.09 10.638209744247984 1.2679372276591687 29.09956099061385 1 -7 1
2958 228 7 0.09 11.3725278006505 6.482357882355996 24.57061038250629 0 -1 -4
6655 512 12 0.315 8.162593860841888 1.7412532285707587 27.454956282381442 3 1 -2
111 9 7 0.09 1.3652661959511798 6.832699159927554 27.839617385091927 -1 1 0
6647 512 4 -0.877 7.62800635089664 2.611184263958706 27.525309428385516 3 1 -2
6648 512 5 0.09 8.38940899889174 1.1097037882411631 25.080659366801154 3 1 -2
1382 107 4 -0.877 9.815009143928675 6.0650318797549705 33.24432472722173 -2 0 -1
4308 332 5 0.09 10.970386506997727 1.1131041296286783 27.265816242996717 1 -7 1
1391 107 13 0.315 8.86210348079501 5.811898896893811 33.308679344620465 -2 0 -1
3053 235 11 0.09 2.2898346564929772 0.6156842142901267 24.926586240694963 -2 -1 0
5939 457 11 0.09 6.553904672698112 0.5886964882489424 33.37071493778886 -2 -2 -3
6003 462 10 0.09 6.140137676020319 7.896772263416284 29.198837330809624 -1 1 0
106 9 2 -0.189 1.477713748547962 8.224832551615272 26.137079738431652 -1 1 0
112 9 8 0.09 0.8789573983119239 8.79814652225113 25.432976679052665 -1 1 0
5308 409 4 -0.877 10.434060044991428 13.330452130636864 24.188045589340245 -4 -4 -2
107 9 3 0.08699999999999999 2.4454367219691973 9.182989314128617 26.896800476020527 -1 1 0
5538 426 13 0.315 4.813530225603854 8.788011346062486 24.169811804449814 0 -2 2
5537 426 12 0.315 5.985330539417603 9.576226747071683 23.52126588219735 0 -2 2
5315 409 11 0.09 8.66816367052732 13.294300996351895 25.290222037963034 -4 -4 -2
5529 426 4 -0.877 5.784609241404479 8.634665160770155 23.799620192966422 0 -2 2
2963 228 12 0.315 10.499704011312538 8.777481928641347 25.612975592862583 0 -1 -4
915 71 5 0.09 4.933543871566115 13.043743980717693 22.911875995216107 1 -1 -2
555 43 9 0.09 2.0560335567305463 14.960217772165292 32.390747874160354 1 -2 6
3874 298 13 0.315 4.173292788964308 14.954465582967732 27.152794857328693 -2 3 -4
114 9 10 0.09 3.3212349893647297 8.471505922991014 27.22288000476872 -1 1 0
3459 267 1 -0.281 7.887281954247559 14.828761017228427 32.82503761686362 1 -3 -2
117 9 13 0.315 2.503333009937861 10.687501528537396 25.421294388723066 -1 1 0
1701 131 11 0.09 9.490274830153584 9.750378661522767 23.036814028635376 -4 0 5
551 43 5 0.09 3.267842901908231 12.455191028056444 30.981086759554127 1 -2 6
5530 426 5 0.09 6.267583595804289 10.706526914672647 25.683735944985184 0 -2 2
116 9 12 0.315 3.7452939328607604 10.78265426981397 26.555942212355504 -1 1 0
1555 120 8 0.09 8.94831328036519 11.867692178874222 30.1842386154437 4 -3 1
5307 409 3 0.08699999999999999 9.38718154322772 14.136229539636016 24.920287349495784 -4 -4 -2
5314 409 10 0.09 8.879771699124387 14.852730854922745 24.302007613244047 -4 -4 -2
108 9 4 -0.877 3.130606204617053 10.160622966612085 26.04486784530874 -1 1 0
1350 104 11 0.09 4.834260232732876 9.8837014713577 32.06218872388715 -1 -2 0
552 43 6 0.09 1.8523661982178412 12.532322978175264 32.11286927457425 1 -2 6
5306 409 2 -0.189 9.89593361561106 14.709319395005936 26.273728180044248 -4 -4 -2
911 71 1 -0.281 5.7378187935970795 12.517809697562237 23.285523173463478 1 -1 -2
1552 120 5 0.09 9.669804939410646 10.600401830287614 32.09118851000785 4 -3 1
2105 162 12 0.315 1.8416664933388507 11.806839087205972 28.13113391194508 3 0 -2
917 71 7 0.09 5.449624716766172 11.83696192768056 24.089515343941148 1 -1 -2
1408 109 4 -0.877 0.9186745402211376 10.614569130836692 23.30361259178404 3 5 0
115 9 11 0.09 1.9530324455488024 9.633087450499072 27.80985829927816 -1 1 0
1342 104 3 0.08699999999999999 4.67737571511236 9.088202079405153 32.88185602514031 -1 -2 0
5312 409 8 0.09 10.209419271853628 13.910388767312769 26.984754155255306 -4 -4 -2
554 43 8 0.09 3.7619797486496034 14.93408999326254 31.760706094191903 1 -2 6
1351 104 12 0.315 2.712672388297345 9.266417593033575 32.454247414771125 -1 -2 0
1554 120 7 0.09 8.79827086306713 9.38930940848229 31.019243620866888 4 -3 1
916 71 6 0.09 6.321901935246674 13.320052804939074 23.790930367771914 1 -1 -2