LAMMPS data file via write_data, version 29 Aug 2024, timestep = 1000000, units = real

5488 atoms
16 atom types
5145 bonds
15 bond types
9261 angles
27 angle types
14406 dihedrals
42 dihedral types
3087 impropers
9 improper types

2.5260494399242113 42.473950560054604 xlo xhi
2.5260494399242113 42.473950560054604 ylo yhi
2.5260494399242113 42.473950560054604 zlo zhi

Masses

1 12.011
2 12.011
3 12.011
4 15.999
5 12.011
6 12.011
7 1.008
8 1.008
9 1.008
10 1.008
11 1.008
12 1.008
13 1.008
14 1.008
15 1.008
16 1.008

Pair Coeffs # lj/charmmfsw/coul/long

1 0.078 3.65268 0.01 3.38542
2 0.055999 3.58141 0.01 3.38542
3 0.09 3.56359 0.09 3.56359
4 0.05 3.02906 0.12 2.49452
5 0.055999 3.58141 0.01 3.38542
6 0.078 3.65268 0.01 3.38542
7 0.024001 2.38761 0.024001 2.38761
8 0.024001 2.38761 0.024001 2.38761
9 0.024001 2.38761 0.024001 2.38761
10 0.035 2.38761 0.035 2.38761
11 0.035 2.38761 0.035 2.38761
12 0.035 2.38761 0.035 2.38761
13 0.035 2.38761 0.035 2.38761
14 0.024001 2.38761 0.024001 2.38761
15 0.024001 2.38761 0.024001 2.38761
16 0.024001 2.38761 0.024001 2.38761

Bond Coeffs # harmonic

1 222.5 1.528
2 330 1.5
3 700 1.23
4 330 1.5
5 222.5 1.528
6 322 1.111
7 322 1.111
8 322 1.111
9 309 1.111
10 309 1.111
11 309 1.111
12 309 1.111
13 322 1.111
14 322 1.111
15 322 1.111

Angle Coeffs # charmm

1 60 111.5 0 0
2 75 122.2 0 0
3 35 115.6 0 0
4 60 111.5 0 0
5 34.6 110.1 22.53 2.179
6 34.6 110.1 22.53 2.179
7 34.6 110.1 22.53 2.179
8 34.6 110.1 22.53 2.179
9 34.6 110.1 22.53 2.179
10 50 109.5 0 0
11 50 109.5 0 0
12 34.6 110.1 22.53 2.179
13 34.6 110.1 22.53 2.179
14 34.6 110.1 22.53 2.179
15 75 122.2 0 0
16 35.5 108.4 5.4 1.802
17 34.6 110.1 22.53 2.179
18 50 109.5 0 0
19 35.5 109 5.4 1.802
20 35.5 109 5.4 1.802
21 34.6 110.1 22.53 2.179
22 35.5 108.4 5.4 1.802
23 35.5 108.4 5.4 1.802
24 35.5 108.4 5.4 1.802
25 35.5 108.4 5.4 1.802
26 35.5 108.4 5.4 1.802
27 50 109.5 0 0

Dihedral Coeffs # charmmfsw

1 0.75 1 180 1
2 0.75 1 0 1
3 0.16 3 0 1
4 0.16 3 0 1
5 0.75 1 0 1
6 0.16 3 0 1
7 0.1 3 0 1
8 0.75 1 180 1
9 0.1 3 0 1
10 0.1 3 0 1
11 0.1 3 0 1
12 0.16 3 0 1
13 0.16 3 0 1
14 0.16 3 0 1
15 0.16 3 0 1
16 0.16 3 0 1
17 0.16 3 0 1
18 0.16 3 0 1
19 0.16 3 0 1
20 0.16 3 0 1
21 0.16 3 0 1
22 0.16 3 0 1
23 0 3 0 1
24 0.16 3 0 1
25 0.16 3 0 1
26 0 3 0 1
27 0 3 0 1
28 0.16 3 0 1
29 0 3 0 1
30 0.16 3 0 1
31 0.18 2 180 0
32 0.065 3 180 0
33 0.03 6 0 0
34 0.18 2 180 0
35 0.06 3 0 0
36 0.03 6 0 0
37 0.18 2 180 0
38 0.06 3 0 0
39 0.03 6 0 0
40 0.18 2 180 0
41 0.065 3 180 0
42 0.03 6 0 0

Improper Coeffs # harmonic

1 70 0
2 0 0
3 0 0
4 0 0
5 0 0
6 0 0
7 0 0
8 0 0
9 0 0

Atoms # full

1843 116 3 0.333 9.55576162183026 6.658479275875064 8.890577442019797 -1 1 1
1845 116 5 -0.12 8.630225687064476 6.438549836379922 10.089087906781696 -1 1 1
1844 116 4 -0.429 9.85386691484691 7.769118981518079 8.555296382321853 -1 1 1
3603 226 3 0.333 11.92965148425846 2.7397002150528302 12.252959015411768 1 -1 0
5086 318 14 0.09 9.67068922459529 4.427010040651583 4.019788718455423 -1 3 0
1788 112 12 0.09 3.972966666242685 3.1486024339432728 7.714295316892191 1 0 0
1073 68 1 -0.282 3.9734490034365355 7.936428420025455 10.545140256506917 0 0 1
236 15 12 0.09 11.264962208748138 2.8817144743668894 4.929927388081982 -1 -2 -2
1851 116 11 0.09 9.014037422900367 4.933657254243167 7.986729010270989 -1 1 1
1854 116 14 0.09 8.128628606371601 8.563350950383153 10.375366841118314 -1 1 1
1856 116 16 0.09 7.9535078006557836 7.528376496154049 11.919128022418054 -1 1 1
1846 116 6 -0.282 8.522412769632599 7.661544729146557 10.999006034766728 -1 1 1
1849 116 9 0.09 11.58489612284325 6.051931718846573 6.7409527608888435 -1 1 1
1855 116 15 0.09 9.551188319621254 7.891009345288826 11.393856261103005 -1 1 1
1778 112 2 -0.12 6.241393015813001 2.9170586394474105 9.897258405888884 1 0 0
5469 342 13 0.09 4.027743540051334 8.78108860459648 5.7750550148984985 0 0 0
1081 68 9 0.09 4.543750228043295 7.246396906299827 9.866011323376833 0 0 1
1852 116 12 0.09 9.068522490857108 5.626547181394725 10.62196780939234 -1 1 1
1080 68 8 0.09 4.535631868569794 8.178443997341187 11.455128095985577 0 0 1
1598 100 14 0.09 11.426269895230691 7.364472521210218 2.8037823336118106 -1 -2 -2
1847 116 7 0.09 9.86663330929579 6.344281214075418 6.0757144339958025 -1 1 1
5461 342 5 -0.12 4.553847097358879 8.762274452165194 4.723063816540639 0 0 0
1853 116 13 0.09 7.596552816106299 6.093332216869072 9.780444884021673 -1 1 1
1779 112 3 0.333 5.909652683693611 2.999456199918355 8.450057738841952 1 0 0
1321 83 9 0.09 9.503081743054679 8.67031461879191 3.2913579876663936 -2 0 0
4145 260 1 -0.282 12.47710550149644 9.247338276713279 12.006580683417901 4 -2 -1
1323 83 11 0.09 8.440309779095262 10.943787693532014 3.079705447230121 -2 0 0
1780 112 4 -0.429 6.671143667454984 3.5620017174422896 7.64734218412445 1 0 0
1850 116 10 0.09 10.769126171573514 4.917662531111068 8.715706510238142 -1 1 1
3606 226 6 -0.282 12.358210158468026 5.053299196924862 11.477105240293215 1 -1 0
5085 318 13 0.09 7.589098704030447 5.036288383960738 5.116366246749237 -1 3 0
395 25 11 0.09 8.727525667389887 15.269681849378564 8.969040642227817 -1 -1 -1
1784 112 8 0.09 7.970345516540857 2.9547664452990015 11.203111550266275 1 0 0
772 49 4 -0.429 6.613670837098311 13.671609861722686 4.580378681368668 0 1 1
5078 318 6 -0.282 8.828759406938998 3.7324449569882265 3.8964674621705884 -1 3 0
1600 100 16 0.09 10.948427640534055 6.013949968636939 3.9481486389816407 -1 -2 -2
5077 318 5 -0.12 7.471515756117899 4.429329810805183 4.190518582650337 -1 3 0
1842 116 2 -0.12 9.962337517977026 5.39892858006805 8.079005502764826 -1 1 1
5087 318 15 0.09 8.747507994225609 3.2481817398923187 2.8815287204926925 -1 3 0
1313 83 1 -0.282 9.403163512870108 9.316391822059249 4.169082382441572 -2 0 0
1319 83 7 0.09 8.389066167642362 8.989180788041313 4.60257500287533 -2 0 0
1074 68 2 -0.12 3.575726228203518 9.31095359654078 9.853855994716287 0 0 1
5084 318 12 0.09 6.69351380753481 3.614921629927797 4.340067359694268 -1 3 0
2664 167 8 0.09 2.693207542259458 5.605451128712574 8.349175397467075 2 2 1
5459 342 3 0.333 3.5184878130375603 8.438194929315333 3.686994228393451 0 0 0
771 49 3 0.333 6.712648968226754 14.731100727270627 3.9613631767329895 0 1 1
5076 318 4 -0.429 6.662260088473705 6.5186137281333005 3.5500916713632655 -1 3 0
1340 84 12 0.09 12.335226199630414 15.560113151376889 12.38477151861252 -2 2 2
1342 84 14 0.09 12.258687377084907 14.786150996120115 10.048486589379673 -2 2 2
4939 309 11 0.09 10.725276909541197 9.915061780101905 7.035596023502591 1 1 -1
5468 342 12 0.09 5.178318226860549 7.8464576119238165 4.771258487787226 0 0 0
5075 318 3 0.333 7.0528355570253325 5.4306430687945575 3.145640992521608 -1 3 0
1777 112 1 -0.282 7.783938198244948 2.617546196033512 10.186993291896343 1 0 0
1590 100 6 -0.282 11.83554969112362 6.634771035854534 3.5640182327675802 -1 -2 -2
1320 83 8 0.09 10.202493892620666 9.162351403236334 4.927380150847762 -2 0 0
4280 268 8 0.09 3.7490981630856792 3.2577624880482814 11.735714734509669 1 2 2
4938 309 10 0.09 11.910532719745603 9.705731395108664 8.325894704384385 1 1 -1
393 25 9 0.09 6.568689536920677 15.767756505164424 7.82226443095045 -1 -1 -1
1848 116 8 0.09 10.60557235447978 4.558556578060401 6.174765378404734 -1 1 1
1841 116 1 -0.282 10.565921709028878 5.608432832147024 6.654334406486519 -1 1 1
5088 318 16 0.09 8.954878744035717 2.961123586552085 4.704910691499879 -1 3 0
1318 83 6 -0.282 11.716491749855946 13.403854636437739 2.5950454864366903 -2 0 0
1785 112 9 0.09 8.370517276022627 3.126711901664552 9.356748234215187 1 0 0
5458 342 2 -0.12 2.6549245655248215 7.24558811097083 4.017359606344048 0 0 0
1273 80 9 0.09 11.077521405549197 15.402530026330108 8.419781317883547 -1 0 1
1326 83 14 0.09 11.622385747367865 14.5041704145115 2.871112296669494 -2 0 0
4930 309 2 -0.12 11.577611653149457 10.39482983647975 7.5019952340370395 1 1 -1
1274 80 10 0.09 10.268050256765177 14.551014077026485 6.068499638549178 -1 0 1
4941 309 13 0.09 8.817570910140766 10.79100404571524 8.443108312114935 1 1 -1
249 16 9 0.09 3.063323411797812 13.988433741289768 3.864827614334035 1 -2 2
247 16 7 0.09 4.167657602699796 12.777788680534533 4.509508773675686 1 -2 2
1079 68 7 0.09 3.136098888171539 7.269625047810788 10.90048418776213 0 0 1
1266 80 2 -0.12 11.141143166527112 15.324419047550931 6.15864602370125 -1 0 1
5466 342 10 0.09 3.3262089323131776 6.358213206447189 4.155586748712424 0 0 0
1275 80 11 0.09 12.112807237465113 14.748486475786637 6.253032687071558 -1 0 1
1075 68 3 0.333 2.768731626435165 9.323627866033199 8.625100878244158 0 0 1
1083 68 11 0.09 2.9117915338245255 9.882659271416468 10.461183320328704 0 0 1
1314 83 2 -0.12 9.24414803915375 10.778911926235436 3.743493953490449 -2 0 0
5338 334 10 0.09 5.298195629895938 14.5268484745518 11.527488502826666 -1 0 2
1324 83 12 0.09 9.74330135988522 13.368731469636804 3.6242905463304007 -2 0 0
4932 309 4 -0.429 11.438528709755616 12.648013499025971 8.30741119538206 1 1 -1
5329 334 1 -0.282 5.31045167621699 12.344329209501542 11.138759402880854 -1 0 2
1082 68 10 0.09 4.50971604949471 9.757645402408965 9.612334787067528 0 0 1
5335 334 7 0.09 5.184659583936462 12.164432413139302 10.066272770996825 -1 0 2
1315 83 3 0.333 10.43117760397164 11.348138009611116 3.23215161023046 -2 0 0
5337 334 9 0.09 6.391837029015623 12.390335979713292 11.407520575831274 -1 0 2
4942 309 14 0.09 10.029299710987868 12.850007951226022 10.376972088081065 1 1 -1
392 25 8 0.09 6.616962040406261 14.71160268103206 9.117309260779997 -1 -1 -1
5470 342 14 0.09 5.995796271397302 9.798380264812824 3.52592158236147 0 0 0
4931 309 3 0.333 10.945187397411427 11.562491616903626 8.24292612859729 1 1 -1
4943 309 15 0.09 8.540634338258847 11.959664461717853 10.675069879131955 1 1 -1
1084 68 12 0.09 3.458874690905075 11.225246517721493 7.777106641935313 0 0 1
4933 309 5 -0.12 9.677180597529068 11.220224605610122 9.015313269072056 1 1 -1
5333 334 5 -0.12 2.8792624179236346 15.31078435689795 11.324834359816512 -1 0 2
4934 309 6 -0.282 9.198329866697492 12.349389219661855 9.866296110107681 1 1 -1
4279 268 7 0.09 3.75894862813474 5.082879598335662 12.250321008002135 1 2 2
1317 83 5 -0.12 10.291543075762274 12.74223483009034 2.805324803259298 -2 0 0
5336 334 8 0.09 4.926532267708051 11.431024873677936 11.592505276314274 -1 0 2
4936 309 8 0.09 12.080715140790126 11.150098435683757 5.586967802671069 1 1 -1
5341 334 13 0.09 2.8726110816236146 15.734320956140868 12.354430580541534 -1 0 2
4152 260 8 0.09 12.15376005662471 8.200441976638896 11.740301838806163 4 -2 -1
4944 309 16 0.09 8.618451152531776 13.129029901633867 9.324373966765393 1 1 -1
5472 342 16 0.09 4.944295226181071 10.90124944270693 4.4950333085364855 0 0 0
1322 83 10 0.09 8.971313583759063 11.310145198495682 4.698538772631367 -2 0 0
4940 309 12 0.09 9.946093361138324 10.37864754496281 9.671424085381368 1 1 -1
251 16 11 0.09 2.7861146354071167 11.593960485567806 2.6327420261681223 1 -2 2
3616 226 16 0.09 11.361584536414224 4.941929931425566 10.996191733338785 1 -1 0
5331 334 3 0.333 3.2828148280041294 13.856107011193782 11.358206110148904 -1 0 2
5460 342 4 -0.429 3.250597767239551 9.13074836672525 2.7008609776454415 0 0 0
5462 342 6 -0.282 5.463145226478578 9.934753634209397 4.528552627485434 0 0 0
5330 334 2 -0.12 4.712587060464392 13.659546897198744 11.787096442969506 -1 0 2
1316 83 4 -0.429 11.454405066233496 10.677721791365371 2.964623861978787 -2 0 0
5471 342 15 0.09 6.15966412404863 9.90504910467429 5.443974856676393 0 0 0
775 49 7 0.09 5.074948042221276 15.286556789622304 5.9757328417227225 0 1 1
1786 112 10 0.09 5.9349977455799525 3.9152796568617068 10.309244463999427 1 0 0
385 25 1 -0.282 6.7299927677636635 15.747095857030292 8.888890106036943 -1 -1 -1
241 16 1 -0.282 3.0810947635525077 12.981486310938632 4.326997314718785 1 -2 2
1599 100 15 0.09 12.243283602436794 7.3309006046991145 4.4346051395501735 -1 -2 -2
4151 260 7 0.09 11.598162592290329 9.810333537098705 12.448414463672401 4 -2 -1
248 16 8 0.09 2.5431121975319493 13.108403910206144 5.273227016633606 1 -2 2
4708 295 4 -0.429 8.549139683332786 7.336153886237755 14.24281676171361 3 1 0
4119 258 7 0.09 10.383515709388673 5.1101623438026325 19.055717233550208 1 -2 0
4706 295 2 -0.12 9.402199469763639 5.249409510241854 14.492308897366584 3 1 0
4115 258 3 0.333 8.396490419451931 3.6869805979230463 20.59303878372012 1 -2 0
4122 258 10 0.09 10.522973973499901 4.160945452220304 21.200402309225378 1 -2 0
4707 295 3 0.333 9.487026750211431 6.710881514067772 14.774463213506145 3 1 0
4709 295 5 -0.12 10.611755725786926 7.389745080297816 15.50839911068862 3 1 0
4683 293 11 0.09 6.701027428091731 7.396520295450722 16.971502748853 1 0 0
4121 258 9 0.09 11.535771261678253 3.8564671084023887 19.03106144582917 1 -2 0
4120 258 8 0.09 10.001540238131211 3.525183721805895 18.317811132237615 1 -2 0
4114 258 2 -0.12 9.945176652655643 3.5296172710194775 20.48650789166527 1 -2 0
4113 258 1 -0.282 10.427207616797197 4.045343889436223 19.167011778822882 1 -2 0
4124 258 12 0.09 7.752469347027913 5.409501458446089 19.554551069683388 1 -2 0
4127 258 15 0.09 6.2243753428869635 6.316094655766635 21.427078749315218 1 -2 0
5339 334 11 0.09 4.667709741852038 13.506290542364443 12.86985491357721 -1 0 2
196 13 4 -0.429 10.25818128127911 7.643232053494874 21.224736967918357 0 1 1
4717 295 13 0.09 10.781751297383666 6.808515224899873 16.416387585028836 3 1 0
2272 142 16 0.09 12.407053387330429 15.145427930817668 21.469680212493895 1 -1 0
4714 295 10 0.09 9.61740352725862 5.088704943849805 13.436803981356512 3 1 0
1394 88 2 -0.12 12.079503435646293 13.64112593961702 16.376051267797777 1 3 0
4705 295 1 -0.282 8.077814736126985 4.58452253906326 14.848762707218345 3 1 0
4710 295 6 -0.282 10.257730156735128 8.893518858824184 15.80210652749921 3 1 0
4680 293 8 0.09 4.706995761564788 5.7929447858267 16.568096660131197 1 0 0
4673 293 1 -0.282 4.675584964251685 6.851156394699363 16.50707765944948 1 0 0
4718 295 14 0.09 9.276676104462108 9.087632871637005 16.177889239881324 3 1 0
4719 295 15 0.09 10.343569395081872 9.334328142760274 14.71974637641372 3 1 0
4712 295 8 0.09 7.776483588234492 4.886141952204492 15.872710229373121 3 1 0
4715 295 11 0.09 10.168116622408645 4.6949274664236835 15.151728403177405 3 1 0
4117 258 5 -0.12 7.838451977614304 5.107657159500416 20.66622461936986 1 -2 0
4720 295 16 0.09 11.05771812907916 9.436217238483628 16.329544251315234 3 1 0
4713 295 9 0.09 8.215211012025414 3.486814567233684 14.789602466327553 3 1 0
4716 295 12 0.09 11.517559946550243 7.2099165481592795 14.996072843796878 3 1 0
4711 295 7 0.09 7.315638116534565 5.006754437996884 14.147703781330904 3 1 0
4128 258 16 0.09 6.180952428842156 4.787601183919129 22.205119286003043 1 -2 0
4118 258 6 -0.282 6.393582884235476 5.28993756559254 21.21676429623534 1 -2 0
4126 258 14 0.09 5.638655292462532 4.881641205355755 20.51263283614766 1 -2 0
4125 258 13 0.09 8.616926260370409 5.76587505245746 21.054959465349505 1 -2 0
4282 268 10 0.09 3.5121259539446013 4.374332827548589 14.673424703633037 1 2 2
4274 268 2 -0.12 3.16832374778677 3.7592876590975086 13.781296107295422 1 2 2
4283 268 11 0.09 3.4333102228601002 2.7579233689083047 14.025030932222744 1 2 2
198 13 6 -0.282 12.125610844236084 8.703603451769109 19.55287803319251 0 1 1
206 13 14 0.09 11.694039164357108 7.987631736584496 18.79506103000052 0 1 1
4674 293 2 -0.12 5.996421965964234 7.441328771359081 16.109301517821677 1 0 0
4682 293 10 0.09 6.351379179500487 6.8891233095327244 15.237463935203941 1 0 0
4679 293 7 0.09 4.290753845070213 7.2188721903609 17.515057857511945 1 0 0
293 19 5 -0.12 4.2667864144242476 14.024921857216434 21.94856877136613 -2 -1 -1
1402 88 10 0.09 11.482287811826431 12.923547835720164 16.863536625186295 1 3 0
3295 206 15 0.09 3.585739497328526 5.514659329144627 20.37224011473449 0 1 -1
2259 142 3 0.333 9.919005772535405 14.381655079635905 20.143290123506475 1 -1 0
291 19 3 0.333 3.6881897486707755 14.91465013514739 20.924443702209945 -2 -1 -1
2368 148 16 0.09 3.8621516285687125 11.632205558767128 17.918446990856857 2 -1 -1
2366 148 14 0.09 3.4227927189863387 10.332012569235692 19.002817302015085 2 -1 -1
3294 206 14 0.09 2.8380714009040453 6.266637613283159 18.88061280939521 0 1 -1
4681 293 9 0.09 3.979320362892577 7.1463699240902985 15.6809792801782 1 0 0
2266 142 10 0.09 7.783577848516927 14.520191091569968 20.19491734522419 1 -1 0
3296 206 16 0.09 3.225258042072773 7.234786623493042 20.354887068023785 0 1 -1
2098 132 2 -0.12 5.509275080339936 14.733272903056147 16.098979178969316 1 2 -1
2104 132 8 0.09 6.742952832728448 15.728209367192875 14.714333272404325 1 2 -1
1398 88 6 -0.282 9.544327999644326 13.88377565508407 13.455339424419964 1 3 0
2260 142 4 -0.429 10.762469261659202 13.641869241452818 19.627964629447803 1 -1 0
304 19 16 0.09 3.6770133964760277 12.0256088323084 21.119225497716833 -2 -1 -1
199 13 7 0.09 7.302970936755421 8.4158144823158 22.387005856929076 0 1 1
2261 142 5 -0.12 10.139809916963891 15.111957639442737 21.489204478133406 1 -1 0
1396 88 4 -0.429 11.272673198087826 15.371974707183712 14.908425069474584 1 3 0
2357 148 5 -0.12 2.537180142764766 10.155164487310852 17.041338804289197 2 -1 -1
2109 132 13 0.09 2.8324124800205874 13.918425523094731 16.43472833036965 1 2 -1
1408 88 16 0.09 10.113518372094521 14.573733444026635 12.736078863207043 1 3 0
2108 132 12 0.09 2.7144914734253547 15.650535009799736 16.841969072013725 1 2 -1
1407 88 15 0.09 9.020845665713708 13.032937751659258 12.868965169095809 1 3 0
3286 206 6 -0.282 2.886709444133648 6.256224401885688 20.042001959085315 0 1 -1
1405 88 13 0.09 11.211528217798435 12.516182560379782 13.837273139939581 1 3 0
2101 132 5 -0.12 2.962777137628175 14.925870262918727 16.040373924216894 1 2 -1
292 19 4 -0.429 3.890045864213784 14.734531696691445 19.727916950473563 -2 -1 -1
4281 268 9 0.09 5.087753188167053 3.9188448913980607 12.768687498118675 1 2 2
2106 132 10 0.09 5.173932038206667 14.802929754380395 17.12354460283443 1 2 -1
1406 88 14 0.09 8.776460891494171 14.41469107256408 13.996571298920163 1 3 0
4685 293 13 0.09 6.768961402208547 8.671758470434177 13.847335536724227 1 0 0
4677 293 5 -0.12 5.999001591501754 9.327959530816283 14.387358346061163 1 0 0
4684 293 12 0.09 4.994795179420206 9.093906523526222 13.944498973638723 1 0 0
4675 293 3 0.333 5.96560408676304 8.944209279540068 15.855757394555145 1 0 0
1134 71 14 0.09 6.043645765967506 3.4886774773754365 18.895991014962878 -2 0 0
4688 293 16 0.09 6.796392717537895 10.96185197457157 13.182273215618595 1 0 0
2265 142 9 0.09 9.25296521130105 13.772209683822101 17.572736002920067 1 -1 0
2263 142 7 0.09 7.422159499297456 13.99856975721538 17.74645662062789 1 -1 0
294 19 6 -0.282 3.5351278891540403 12.6229592022715 22.03974133035944 -2 -1 -1
301 19 13 0.09 5.310229361808023 13.862848174746759 21.615732744485758 -2 -1 -1
1397 88 5 -0.12 10.483590958394359 13.16706736979381 14.437071293131899 1 3 0
1404 88 12 0.09 9.883591656893662 12.699744565517427 15.256759548319208 1 3 0
2264 142 8 0.09 8.31724691404252 12.613609443945462 18.570302091170927 1 -1 0
2257 142 1 -0.282 8.3585632836973 13.643354816206426 18.284537845886767 1 -1 0
4678 293 6 -0.282 6.33604823926108 10.840545446802878 14.199139810440721 1 0 0
4686 293 14 0.09 7.067470014580353 11.194285576865708 14.90365165920389 1 0 0
4687 293 15 0.09 5.398651519955765 11.345211965664461 14.299104762809133 1 0 0
194 13 2 -0.12 8.641896189405221 9.54243872906057 21.03692023863816 0 1 1
2258 142 2 -0.12 8.56929418664604 14.584892511848066 19.474701686723584 1 -1 0
203 13 11 0.09 7.990229450686558 9.379146233123539 20.226711079993116 0 1 1
2358 148 6 -0.282 3.0330900886165972 10.994548899040584 18.220491006678017 2 -1 -1
205 13 13 0.09 10.541556883068537 10.163577920636286 19.25336878655113 0 1 1
197 13 5 -0.12 10.970900204605668 9.541788423139817 20.038729030910662 0 1 1
204 13 12 0.09 11.347580504021963 10.34592612761255 20.66681676024718 0 1 1
195 13 3 0.333 9.982110628085604 8.764609402054461 20.830779734063672 0 1 1
202 13 10 0.09 8.927328819116472 10.648293229371466 20.91334137067179 0 1 1
1395 88 3 0.333 11.315097809141458 14.213185395557277 15.229517988981447 1 3 0
2107 132 11 0.09 5.815955577072175 13.684269540820567 15.913310528782082 1 2 -1
4676 293 4 -0.429 5.959977079974641 9.771560706145774 16.739087277678983 1 0 0
2099 132 3 0.333 4.258495971681585 15.170869218450592 15.296228869608255 1 2 -1
4273 268 1 -0.282 3.9936177417412426 4.020356783133229 12.561930146201625 1 2 2
2097 132 1 -0.282 6.597620958957767 15.74305127959742 15.84308613755048 1 2 -1
2267 142 11 0.09 8.516424701285171 15.609025800102815 19.270688454134838 1 -1 0
1136 71 16 0.09 5.710909693179384 4.053889133080489 17.249228843705737 -2 0 0
2105 132 9 0.09 7.58436717091055 15.560898375816661 16.405481574076834 1 2 -1
2268 142 12 0.09 10.181413084644527 14.307925126011964 22.235107235527714 1 -1 0
1126 71 6 -0.282 5.248920972916137 3.5660634077246773 18.133032337511167 -2 0 0
1399 88 7 0.09 11.709533649816986 15.289728551673734 17.836732533205993 1 3 0
3604 226 4 -0.429 11.352555777856773 3.16180453446008 13.234451852877738 1 -1 0
2365 148 13 0.09 3.4953379398280737 9.7606027152326 16.59060743730243 2 -1 -1
1135 71 15 0.09 4.498825149586101 4.250332577667771 18.597703100865647 -2 0 0
4116 258 4 -0.429 7.690100528009209 2.680051343086616 20.75964811620646 1 -2 0
193 13 1 -0.282 7.861083053449083 9.34138450014527 22.41569890024087 0 1 1
2100 132 4 -0.429 4.343353429767315 15.666040487316176 14.152178565917248 1 2 -1
5115 320 11 0.09 12.501637089991178 6.598859339277691 22.302367875039472 3 0 0
1393 88 1 -0.282 12.495879544789126 14.693107949006947 17.443315440329833 1 3 0
3615 226 15 0.09 12.27420659206842 5.574492546802861 12.527350477253188 1 -1 0
2066 130 2 -0.12 7.83318409827061 5.887088932273936 25.444046934967858 0 0 0
2352 147 16 0.09 10.739121995339122 7.940916999444467 28.78302900369226 4 -1 1
869 55 5 -0.12 2.868775329053734 7.185405235546439 24.2676007532599 0 1 -1
2958 185 14 0.09 10.531140502544236 15.491033276177228 31.69899538420039 -2 3 -1
870 55 6 -0.282 3.5627913473499127 8.41500096654812 23.725270775913646 0 1 -1
867 55 3 0.333 3.718720483511736 5.917937133514399 24.473608654963545 0 1 -1
880 55 16 0.09 4.282536308769927 8.791584522353256 24.455499160733996 0 1 -1
2069 130 5 -0.12 9.134384277376402 3.9139390146825006 24.58148890799003 0 0 0
2384 149 16 0.09 8.059700947345522 2.9881425546660445 29.17200005029492 -3 -3 1
1562 98 10 0.09 4.208566789777662 3.1901707950799256 22.983269604952287 2 0 1
868 55 4 -0.429 4.415335523838871 5.438297429454362 23.58539346188246 0 1 -1
866 55 2 -0.12 3.6139565269876837 5.346378301699522 25.830007565906044 0 1 -1
2599 163 7 0.09 3.2010742935569296 3.8675288882965866 31.067804798302596 -2 1 0
874 55 10 0.09 4.142886643707781 6.081587628577143 26.51257986662866 0 1 -1
2067 130 3 0.333 8.998013362420625 5.392521485248871 24.620753086541647 0 0 0
5393 338 1 -0.282 8.445702763343753 15.69056555809922 24.7187892775311 3 2 0
879 55 15 0.09 4.152391020538184 8.197450356034203 22.77454596183473 0 1 -1
2025 127 9 0.09 4.050554988831735 9.195240448387194 28.938900829752264 0 0 -3
2079 130 15 0.09 10.867305733962139 3.6722206940630255 23.409387683583578 0 0 0
2072 130 8 0.09 7.132619910246487 7.418821615483379 26.849437422133676 0 0 0
1376 86 16 0.09 8.658297652588988 6.874338819127113 32.12181777794845 -1 -1 -2
865 55 1 -0.282 4.154036053377817 3.9517677904562563 26.047601438841344 0 1 -1
2383 149 15 0.09 8.234509572920045 3.7684990280938226 27.480007605097374 -3 -3 1
1057 67 1 -0.282 8.049997220642299 11.740285368127692 32.189161609237786 1 2 2
873 55 9 0.09 3.528131623214687 3.2102048308475375 25.472518597510042 0 1 -1
2017 127 1 -0.282 3.569171854100593 8.42805567419471 29.617539242417354 0 0 -3
2065 130 1 -0.282 8.137104719922403 6.971351133012365 26.498434145512736 0 0 0
2349 147 13 0.09 11.000199293022606 6.145034464854048 30.285626482273205 4 -1 1
2023 127 7 0.09 3.5084729729276134 7.4485119186806115 29.095308693881243 0 0 -3
872 55 8 0.09 5.2680858376384805 3.7868310104996072 25.879749292710983 0 1 -1
1375 86 15 0.09 8.05878995723323 6.671621932166817 30.485915691962944 -1 -1 -2
2075 130 11 0.09 7.2885773524980415 5.006631205522902 25.771256463562818 0 0 0
2074 130 10 0.09 7.121579460519946 6.40308991503047 24.751970717749618 0 0 0
2070 130 6 -0.282 10.56650966362087 3.3813184322961733 24.44740141658782 0 0 0
2342 147 6 -0.282 11.699015477616994 7.409875591798798 28.65879398246621 4 -1 1
2073 130 9 0.09 8.832170163188762 7.692749949317929 26.025449985214347 0 0 0
200 13 8 0.09 7.202579728581592 10.190964222868711 22.60213428178985 0 1 1
2078 130 14 0.09 11.324323301155744 3.7697851066421117 25.091097400600532 0 0 0
2077 130 13 0.09 8.70281459401652 3.3880535836827246 25.53122000428135 0 0 0
2071 130 7 0.09 8.626092030548673 6.523287280027873 27.412277356384614 0 0 0
2068 130 4 -0.429 9.714292503950473 6.177272060379588 24.01557666590339 0 0 0
2024 127 8 0.09 4.357175705493254 8.26564717315177 30.45062215235612 0 0 -3
1366 86 6 -0.282 7.8201129284613025 6.628925770554224 31.53279500540524 -1 -1 -2
5401 338 9 0.09 9.153693034644233 15.837222400549953 23.747246112389345 3 2 0
1068 67 12 0.09 10.820374668402067 10.2965682689258 29.566203822529154 1 2 2
1362 86 2 -0.12 7.984146647569407 2.8202103528002804 31.9881542518856 -1 -1 -2
1069 67 13 0.09 10.488528120268855 11.862978129650509 28.774898470254662 1 2 2
1374 86 14 0.09 6.8591389405701495 7.224776943944429 31.790660522347206 -1 -1 -2
2341 147 5 -0.12 11.9820228011811 6.575965626828777 29.907498280754808 4 -1 1
1373 86 13 0.09 6.748692183739824 4.711075956759309 31.073976293568577 -1 -1 -2
2960 185 16 0.09 11.3851821312252 15.01722464866172 30.18277214312101 -2 3 -1
871 55 7 0.09 4.0233011472891596 3.6336365843845027 27.08260259725224 0 1 -1
2374 149 6 -0.282 7.582134166934497 3.1878773274725254 28.207436426829933 -3 -3 1
1365 86 5 -0.12 7.449446448221876 5.161549761167908 31.895522580531132 -1 -1 -2
2593 163 1 -0.282 3.1247029312678283 3.3713010780951422 30.069518624115723 -2 1 0
1363 86 3 0.333 8.585498284779998 4.199755578316844 31.849079288418356 -1 -1 -2
1061 67 5 -0.12 10.045419760221147 10.916413675399307 29.01106690292095 1 2 2
5400 338 8 0.09 7.7375688243011895 14.892488395380381 24.50933215703126 3 2 0
878 55 14 0.09 2.754572284825349 9.117481094477299 23.506183816740624 0 1 -1
1070 67 14 0.09 9.048733650722573 10.857695951352571 27.05775500544509 1 2 2
1062 67 6 -0.282 9.613375358498608 10.206773205345806 27.694938855799624 1 2 2
5395 338 3 0.333 9.68187638189951 13.932543787897268 26.255756975693288 3 2 0
1371 86 11 0.09 7.534347466620321 2.5755825017961858 31.079696535927404 -1 -1 -2
1072 67 16 0.09 10.514136608126245 10.01913665649402 27.128185871176314 1 2 2
1071 67 15 0.09 9.119773902414366 9.26904908620542 27.945966811095474 1 2 2
5406 338 14 0.09 12.401520277131482 12.343160875245676 24.746434171545918 3 2 0
3140 197 4 -0.429 4.410841401228515 14.144943593612672 27.318762999149126 1 0 -1
2382 149 14 0.09 6.669941268444276 3.8034623570656985 28.39733249908335 -3 -3 1
1058 67 2 -0.12 9.212977395192617 11.143280305003456 31.3978231055919 1 2 2
3137 197 1 -0.282 5.438690256136292 11.989571122177141 25.95528625266589 1 0 -1
1067 67 11 0.09 10.009333858313061 11.836156099123386 31.531590283863476 1 2 2
5117 320 13 0.09 11.865579361324812 7.834881229570967 24.905561901918325 3 0 0
5405 338 13 0.09 11.627936151401983 14.517248022270724 25.673075136638225 3 2 0
2350 147 14 0.09 11.66850816131752 6.738205397596387 27.824834075881224 4 -1 1
1065 67 9 0.09 7.937708141742206 12.779072022148224 31.774819154708425 1 2 2
5397 338 5 -0.12 11.111874129855531 13.587053234991247 25.94711902538149 3 2 0
3143 197 7 0.09 4.37616187923262 12.040244007656419 25.739862584684197 1 0 -1
2950 185 6 -0.282 11.356210817371938 15.773014100233324 30.985047651257503 -2 3 -1
5396 338 4 -0.429 8.878843820019412 13.103289974758326 26.68837208397058 3 2 0
5114 320 10 0.09 12.080445099988275 5.75332799358132 23.71238495076564 3 0 0
300 19 12 0.09 4.32872056228615 14.612166257080798 22.920182147367615 -2 -1 -1
1060 67 4 -0.429 7.705274019083129 11.061376854433252 29.53721549363004 1 2 2
3147 197 11 0.09 5.316637305126649 11.481508526614595 28.09555572699669 1 0 -1
2348 147 12 0.09 12.079119848568356 7.324639371488534 30.77477786575807 4 -1 1
5407 338 15 0.09 10.888712428213692 12.829420900595897 23.827023893472724 3 2 0
1064 67 8 0.09 7.057399049076747 11.24635295356722 32.144843663929606 1 2 2
3145 197 9 0.09 6.095911455502939 12.668187941920644 25.360028638384872 1 0 -1
3146 197 10 0.09 6.866434195825331 12.028348815300726 27.49768000279926 1 0 -1
3144 197 8 0.09 5.728619104940917 10.944318294204498 25.702969358070472 1 0 -1
3138 197 2 -0.12 5.7528740512892895 12.26368851453449 27.43230701016894 1 0 -1
5398 338 6 -0.282 11.315579564546079 12.495176333431521 24.811262447943328 3 2 0
5408 338 16 0.09 10.857695686266 11.554578003463364 25.125411365964798 3 2 0
5394 338 2 -0.12 9.185961795943612 15.346710432006718 26.044154025061502 3 2 0
3151 197 15 0.09 4.9912396260200085 15.74787435077701 30.112986441580585 1 0 -1
3148 197 12 0.09 7.329336397773778 13.94502019591373 28.700423913648123 1 0 -1
3142 197 6 -0.282 5.93912798656449 15.596507138106752 29.454708103467446 1 0 -1
2076 130 12 0.09 8.386099736745937 3.6275181156209486 23.767750101677198 0 0 0
3141 197 5 -0.12 6.25202027157704 14.146269603749946 28.995961509400928 1 0 -1
3149 197 13 0.09 6.110829248609326 13.393774990525372 29.81762668881512 1 0 -1
1059 67 3 0.333 8.856706180085938 11.103179221373495 29.905604532412227 1 2 2
5402 338 10 0.09 8.343333168788401 15.508262014096902 26.802809466317335 3 2 0
2317 145 13 0.09 2.746780336163361 15.265505163886347 26.04986257005437 0 -2 -2
5404 338 12 0.09 11.523923703022534 13.412955207642742 27.00174251208789 3 2 0
303 19 15 0.09 3.8356769995683377 12.01557151215059 22.896458413379957 -2 -1 -1
3139 197 3 0.333 5.358854362970536 13.61854399025546 27.861617216595395 1 0 -1