LAMMPS data file via write_data, version 29 Aug 2024, timestep = 1000000, units = real

5832 atoms
27 atom types
5616 bonds
26 bond types
10584 angles
49 angle types
15120 dihedrals
70 dihedral types

3.32727810564203 41.67272189434786 xlo xhi
3.32727810564203 41.67272189434786 ylo yhi
3.32727810564203 41.67272189434786 zlo zhi

Masses

1 12.011
2 12.011
3 12.011
4 12.011
5 12.011
6 12.011
7 12.011
8 12.011
9 15.999
10 1.008
11 1.008
12 1.008
13 1.008
14 1.008
15 1.008
16 1.008
17 1.008
18 1.008
19 1.008
20 1.008
21 1.008
22 1.008
23 1.008
24 1.008
25 1.008
26 1.008
27 1.008

Pair Coeffs # lj/charmmfsw/coul/long

1 0.078 3.65268 0.01 3.38542
2 0.055999 3.58141 0.01 3.38542
3 0.032 3.56359 0.01 3.38542
4 0.078 3.65268 0.01 3.38542
5 0.032 3.56359 0.01 3.38542
6 0.078 3.65268 0.01 3.38542
7 0.032 3.56359 0.01 3.38542
8 0.078 3.65268 0.01 3.38542
9 0.192101 3.14487 0.192101 3.14487
10 0.024001 2.38761 0.024001 2.38761
11 0.024001 2.38761 0.024001 2.38761
12 0.024001 2.38761 0.024001 2.38761
13 0.035 2.38761 0.035 2.38761
14 0.035 2.38761 0.035 2.38761
15 0.045 2.38761 0.045 2.38761
16 0.024001 2.38761 0.024001 2.38761
17 0.024001 2.38761 0.024001 2.38761
18 0.024001 2.38761 0.024001 2.38761
19 0.045 2.38761 0.045 2.38761
20 0.024001 2.38761 0.024001 2.38761
21 0.024001 2.38761 0.024001 2.38761
22 0.024001 2.38761 0.024001 2.38761
23 0.045 2.38761 0.045 2.38761
24 0.024001 2.38761 0.024001 2.38761
25 0.024001 2.38761 0.024001 2.38761
26 0.024001 2.38761 0.024001 2.38761
27 0.045999 0.400014 0.045999 0.400014

Bond Coeffs # harmonic

1 222.5 1.528
2 222.5 1.538
3 222.5 1.538
4 222.5 1.5
5 222.5 1.538
6 222.5 1.5
7 222.5 1.538
8 428 1.42
9 322 1.111
10 322 1.111
11 322 1.111
12 309 1.111
13 309 1.111
14 309 1.111
15 322 1.111
16 322 1.111
17 322 1.111
18 309 1.111
19 322 1.111
20 322 1.111
21 322 1.111
22 309 1.111
23 322 1.111
24 322 1.111
25 322 1.111
26 545 0.96

Angle Coeffs # charmm

1 58.35 113.5 11.16 2.561
2 53.35 114 8 2.561
3 53.35 111 8 2.561
4 53.35 108.5 8 2.561
5 53.35 111 8 2.561
6 53.35 108.5 8 2.561
7 75.7 110.1 0 0
8 34.6 110.1 22.53 2.179
9 34.6 110.1 22.53 2.179
10 34.6 110.1 22.53 2.179
11 34.6 110.1 22.53 2.179
12 34.6 110.1 22.53 2.179
13 34.5 110.1 22.53 2.179
14 33.43 110.1 22.53 2.179
15 33.43 110.1 22.53 2.179
16 33.43 110.1 22.53 2.179
17 34.5 110.1 22.53 2.179
18 33.43 110.1 22.53 2.179
19 33.43 110.1 22.53 2.179
20 33.43 110.1 22.53 2.179
21 34.5 110.1 22.53 2.179
22 33.43 110.1 22.53 2.179
23 33.43 110.1 22.53 2.179
24 33.43 110.1 22.53 2.179
25 50 106 0 0
26 35.5 108.4 5.4 1.802
27 33.43 110.1 22.53 2.179
28 35.5 109 5.4 1.802
29 35.5 108.4 5.4 1.802
30 35.5 108.4 5.4 1.802
31 34.5 110.1 22.53 2.179
32 35.5 108.4 5.4 1.802
33 75.7 110.1 0 0
34 35.5 108.4 5.4 1.802
35 35.5 108.4 5.4 1.802
36 53.35 108.5 8 2.561
37 35.5 108.4 5.4 1.802
38 34.5 110.1 22.53 2.179
39 45.9 108.89 0 0
40 35.5 108.4 5.4 1.802
41 53.35 108.5 8 2.561
42 34.5 110.1 22.53 2.179
43 34.5 110.1 22.53 2.179
44 35.5 108.4 5.4 1.802
45 35.5 108.4 5.4 1.802
46 33.43 110.1 22.53 2.179
47 35.5 108.4 5.4 1.802
48 35.5 108.4 5.4 1.802
49 34.5 110.1 22.53 2.179

Dihedral Coeffs # charmmfsw

1 0.2 3 0 1
2 0.5 4 180 1
3 0.5 4 180 1
4 0.16 3 0 1
5 0.2 3 0 1
6 0.2 3 0 1
7 0.2 3 0 1
8 1.33 1 0 1
9 0.195 3 0 1
10 0 3 0 1
11 1.33 1 0 1
12 0.195 3 0 1
13 0.195 3 0 1
14 0.2 3 0 1
15 0.195 3 0 1
16 0.5 4 180 1
17 0.2 3 0 1
18 0.195 3 0 1
19 0.2 3 0 1
20 0.16 3 0 1
21 0.195 3 0 1
22 0.195 3 0 1
23 0.195 3 0 1
24 0.195 3 0 1
25 0.2 3 0 1
26 0.195 3 0 1
27 0.2 3 0 1
28 0.2 3 0 1
29 0.195 3 0 1
30 0.195 3 0 1
31 0.195 3 0 1
32 0.2 3 0 1
33 0.195 3 0 1
34 0.16 3 0 1
35 0.5 4 180 1
36 0.2 3 0 1
37 0.2 3 0 1
38 0.2 3 0 1
39 0.16 3 0 1
40 0.195 3 0 1
41 0.16 3 0 1
42 0.2 3 0 1
43 0.2 3 0 1
44 0.195 3 0 1
45 0.2 3 0 1
46 0.195 3 0 1
47 0.2 3 0 1
48 0.2 3 0 1
49 0.16 3 0 1
50 0.195 3 0 1
51 0.2 3 0 1
52 0.5 4 180 1
53 0.195 3 0 1
54 0.195 3 0 1
55 0.2 3 0 1
56 0.195 3 0 1
57 0.2 3 0 1
58 0.5 4 180 1
59 0.14 3 0 1
60 0.16 3 0 1
61 0.14 3 0 1
62 0.2 3 0 1
63 0.16 3 0 1
64 0.16 3 0 1
65 0.195 3 0 1
66 0.195 3 0 1
67 0.18 2 0 0
68 0.46 3 0 0
69 0.18 2 0 0
70 0.46 3 0 0

Atoms # full

3760 140 7 0.141 6.777437144779027 7.685381069417412 5.97975376784862 0 1 0
3137 117 5 -0.104 7.043267919799504 12.395546875384047 12.393239668013155 0 -1 0
3767 140 14 0.09 7.061485135391809 10.29204732101471 8.404472488262536 0 1 0
3773 140 20 0.09 4.7423541420098845 7.219122184759305 7.892026420571342 0 1 0
3775 140 22 0.09 5.637743711084166 7.9121067950369675 9.244579465361893 0 1 0
3755 140 2 -0.175 7.996965823325091 9.887850764750565 8.005644828963788 0 1 0
5371 199 25 0.09 5.669244898489585 6.052845895325858 11.826956404062395 1 1 -1
3038 113 14 0.09 6.934184203677106 5.002307967486074 10.44936993335756 0 0 1
3133 117 1 -0.266 3.9659849985836138 10.814842586657093 10.30089164307206 0 -1 0
3758 140 5 -0.104 6.944512506896353 7.500107437333129 7.494283917351394 0 1 0
3829 142 22 0.09 3.3437997663646937 4.006915618056527 6.475048948383262 0 2 1
3147 117 15 0.09 6.666318053017262 11.295556753237811 10.531692121042006 0 -1 0
3140 117 8 -0.266 7.984058463230162 10.091198207836548 12.276195072186386 0 -1 0
3143 117 11 0.09 3.5073694821855192 11.508846677835377 9.533586086657778 0 -1 0
3134 117 2 -0.175 4.7343403565832665 11.736743741494356 11.31008938169606 0 -1 0
3778 140 25 0.09 7.928635571947171 7.542613114155165 4.166213481428227 0 1 0
3762 140 9 -0.642 5.977764098252772 6.611405231300726 5.446347322182187 0 1 0
3828 142 21 0.09 3.8865732698664077 4.496100155041818 8.105822406028768 0 2 1
3759 140 6 -0.266 5.583170867481613 7.885742198057214 8.174287321389393 0 1 0
3774 140 21 0.09 5.339310972927292 8.915666962016594 7.8606441361488075 0 1 0
3766 140 13 0.09 7.835401748873023 10.056122567529204 6.912352198845706 0 1 0
3156 117 24 0.09 7.392094996253803 9.826646299983546 11.441822250735704 0 -1 0
3827 142 20 0.09 4.975412916042275 3.6950701382611926 6.949281756087046 0 2 1
3776 140 23 0.09 6.363770187746663 8.69004289997371 5.736875502000817 0 1 0
2277 85 9 -0.642 7.80267781230046 3.6088450363648272 4.3909166379358275 1 1 0
3142 117 10 0.09 4.774584936927269 10.24137747700735 9.745380381256938 0 -1 0
3026 113 2 -0.175 7.230281724014641 3.9454908502302968 10.699650360852596 0 0 1
2295 85 27 0.414 7.355762507454743 4.397515350637184 4.3230748144909 1 1 0
2832 105 24 0.09 4.232896517792328 10.839188574122566 3.5337439843329657 0 1 1
5354 199 8 -0.266 5.270836251352342 6.6792596611088495 12.654654475241177 1 1 -1
3135 117 3 -0.098 6.2438125323639095 12.210182312056519 11.067187718667142 0 -1 0
3146 117 14 0.09 4.183865178990245 12.747710381027522 11.295360359713323 0 -1 0
3780 140 27 0.414 5.120121691149759 6.979389113579216 5.30695425321156 0 1 0
3813 142 6 -0.266 3.9402740377427032 3.699234154682917 7.323082253246305 0 2 1
3772 140 19 0.09 7.0977907497881105 6.429871564635039 7.55899855846468 0 1 0
3037 113 13 0.09 6.5450298778044775 3.643319923842332 11.44027465074955 0 0 1
2833 105 25 0.09 6.021741309053294 10.55697781874273 3.4385295309176307 0 1 1
3145 117 13 0.09 4.690964698613339 11.318475153909143 12.350389953111128 0 -1 0
2816 105 8 -0.266 5.070947587141847 10.14813463630573 3.7287486573854065 0 1 1
2834 105 26 0.09 5.1172917780128095 10.051244195791796 4.795043673374789 0 1 1
5370 199 24 0.09 4.476351248469708 7.348612024050783 12.218379057838227 1 1 -1
3771 140 18 0.09 7.450778226560006 8.054865790182507 10.21502051476871 0 1 0
2817 105 9 -0.642 3.7225340723877394 8.247128027685406 3.385659699192709 0 1 1
3036 113 12 0.09 7.12819619262884 3.6816414994507998 8.462390510621823 0 0 1
3151 117 19 0.09 8.031140751970206 12.776593359161831 12.030469607506852 0 -1 0
5369 199 23 0.09 3.7410047539931974 5.450182675672627 13.543037697583813 1 1 -1
4719 175 21 0.09 6.9855265250737215 12.776708236262492 16.67365259340151 1 0 0
5359 199 13 0.09 5.019284803098516 9.173577585519523 16.13507839190764 1 1 -1
5351 199 5 -0.104 4.565543279595041 6.602588939815273 15.174220139655 1 1 -1
4386 163 12 0.09 4.261397247777431 8.711149470195249 19.36963314416878 0 0 -1
4377 163 3 -0.098 3.7464253794871847 7.280753278483152 21.55024193337185 0 0 -1
4712 175 14 0.09 6.869716319180355 11.284283968644914 19.223557541951106 1 0 0
5349 199 3 -0.098 3.6585988479750453 7.823728659381331 15.169894668091864 1 1 -1
4711 175 13 0.09 6.736357144672255 12.643244673153339 20.489745305193402 1 0 0
3970 148 1 -0.266 4.224896877156503 3.833208389826897 19.458901472736855 0 0 0
3159 117 27 0.414 7.937258660829934 12.209009573304332 14.662597161030753 0 -1 0
5355 199 9 -0.642 5.59959200901386 4.806040833409599 14.031933139933672 1 1 -1
5352 199 6 -0.266 4.074855690507263 5.701931573958691 16.324959762840884 1 1 -1
5373 199 27 0.414 5.135659932567518 3.9936784717271463 13.670362639666626 1 1 -1
5353 199 7 0.141 4.711789525471695 5.863938741189521 13.858045901811634 1 1 -1
3980 148 11 0.09 3.8574710230480385 4.780178191931768 18.99637330563722 0 0 0
5367 199 21 0.09 4.045712794176453 6.311078395679164 17.317277135680534 1 1 -1
5360 199 14 0.09 5.033944868669388 9.269342979898997 14.380646428573108 1 1 -1
4718 175 20 0.09 6.006777851572202 12.665613800525398 18.079667531803427 1 0 0
2536 94 25 0.09 6.734300008941448 5.0542957318796535 19.634374003497697 0 0 0
5368 199 22 0.09 4.643460827225796 4.784258226980848 16.405704825094688 1 1 -1
4389 163 15 0.09 3.55320793267936 6.429467333000922 20.835129276581398 0 0 -1
4700 175 2 -0.175 7.423149770588069 11.957420426857892 19.956896922134604 1 0 0
4708 175 10 0.09 7.3192432465870025 10.122505504490615 21.137025853582326 1 0 0
3981 148 12 0.09 4.861096128868195 4.04454281499859 20.435995004176178 0 0 0
2535 94 24 0.09 7.872702243254641 5.7443150901456885 20.799468461336293 0 0 0
4699 175 1 -0.266 8.04711375691958 10.933424500796987 20.89409633518324 1 0 0
4378 163 4 -0.268 5.241043136229143 7.4722056537518835 21.71915518185206 0 0 -1
5357 199 11 0.09 4.041252900440427 11.328587897831852 15.478237200648756 1 1 -1
4390 163 16 0.09 5.501743543817495 7.735142476081695 20.686768410212647 0 0 -1
2537 94 26 0.09 7.105496171232073 6.8781466433113145 19.588900097632823 0 0 0
3155 117 23 0.09 6.391083246487801 10.661163162054168 13.618074548270204 0 -1 0
3139 117 7 0.141 7.333921517680272 11.157821610443499 13.15063963382538 0 -1 0
5365 199 19 0.09 5.622037771093332 6.935105000210871 15.378796353550952 1 1 -1
2519 94 8 -0.266 7.52804006868183 5.872494866342671 19.741880482058694 0 0 0
4600 171 10 0.09 6.864748271535841 3.3277635018153044 22.225874989234175 0 1 0
2529 94 18 0.09 7.010549103917905 8.313078883668094 16.81296354405821 0 0 0
4391 163 17 0.09 5.739487097254434 6.6361248440811575 22.239768864501148 0 0 -1
5347 199 1 -0.266 3.3564892577948338 10.4869925041367 15.179919692620391 1 1 -1
5348 199 2 -0.175 4.373557236290884 9.208980560993773 15.209953814838935 1 1 -1
2530 94 19 0.09 7.221013074729978 6.222982626200602 17.36757364933961 0 0 0
5372 199 26 0.09 6.056681657731071 7.367141867547527 12.942220559037748 1 1 -1
4388 163 14 0.09 3.462514089178212 9.528950651550876 21.61258549863297 0 0 -1
2515 94 4 -0.268 7.993189758474686 8.462354274949767 16.45954894291357 0 0 0
3153 117 21 0.09 5.611674983637278 12.79869667228923 13.877111090632393 0 -1 0
4392 163 18 0.09 5.400892646342381 8.3190695969711 22.41040542721126 0 0 -1
3979 148 10 0.09 3.3592384577985896 3.3766399394156736 19.91195138194439 0 0 0
1305 49 9 -0.642 5.170480156732873 9.822329609173181 26.494860845816934 0 1 0
5633 209 17 0.09 3.66533610916 4.943673271138523 30.111896301601664 0 1 0
1300 49 4 -0.268 5.610713370879985 11.687441622645682 23.937304723177427 0 1 0
5643 209 27 0.414 6.021672642647797 6.271942906202195 25.698675927503626 0 1 0
5623 209 7 0.141 6.349091845644308 6.337588588468849 27.487639212735495 0 1 0
1299 49 3 -0.098 4.576778449137311 12.566726588788937 24.771347980049605 0 1 0
4383 163 9 -0.642 4.45135936619686 7.389141544398225 24.74705722990471 0 0 -1
5641 209 25 0.09 7.148665096442089 6.822670756743843 29.521303992072106 0 1 0
4401 163 27 0.414 4.501756688522536 8.048886485464763 25.470108992763322 0 0 -1
1323 49 27 0.414 6.084038047426375 9.8157933047729 26.25868567384891 0 1 0
5621 209 5 -0.104 6.174685421202945 4.809989152344496 27.561727232988964 0 1 0
5639 209 23 0.09 5.389874353251971 6.905709301722187 27.5860329220697 0 1 0
2115 79 9 -0.642 7.846331213000517 9.365622176714233 25.771108934173895 0 0 -1
5625 209 9 -0.642 6.828889520009671 6.60884125792591 26.125973137882976 0 1 0
1322 49 26 0.09 3.4515089826807666 10.623336256211571 28.45871432944919 0 1 0
1320 49 24 0.09 4.225912279470852 12.304868743515685 28.566364342812626 0 1 0
5630 209 14 0.09 5.954123667492312 3.6609655505788434 30.97347075730242 0 1 0
1321 49 25 0.09 5.146038115163671 10.779412477042012 29.069105929183817 0 1 0
1319 49 23 0.09 5.904219833631837 11.698219286738828 26.90930586685436 0 1 0
5642 209 26 0.09 7.479497739867215 8.167855913838046 28.242842437610985 0 1 0
5619 209 3 -0.098 5.4881277829479025 4.320645756285429 28.846673143752003 0 1 0
3898 145 10 0.09 6.2662337922145745 9.687353155305157 31.199764440784833 1 0 -2
5629 209 13 0.09 6.915760529067134 4.974676447430202 30.377119840704278 0 1 0
5635 209 19 0.09 7.176680850873074 4.369580245221748 27.47824400113051 0 1 0
2133 79 27 0.414 7.6610775176724015 8.452522382367261 25.961821024957054 0 0 -1
5638 209 22 0.09 4.288526389392111 4.58466033996765 26.383138320844257 0 1 0
1304 49 8 -0.266 4.425147426674674 11.167821537175474 28.389850504203824 0 1 0
5622 209 6 -0.266 5.329282667091077 4.257118107101803 26.357263362031414 0 1 0
5632 209 16 0.09 4.764660403793772 6.287140375945375 29.567176916767227 0 1 0
5618 209 2 -0.175 6.466969111498961 4.041081700290493 30.085923130175875 0 1 0
3904 145 16 0.09 5.920880969551851 7.547701507224405 31.140568357684852 1 0 -2
1301 49 5 -0.104 4.020897613293236 11.939990749836497 26.05810371789639 0 1 0
5624 209 8 -0.266 7.35397508686098 7.068746061885186 28.48251066505398 0 1 0
1312 49 16 0.09 6.055457574110753 12.351524254663747 23.15793213207462 0 1 0
1303 49 7 0.141 4.896676194459236 11.14523654016233 26.930762597436118 0 1 0
4394 163 20 0.09 4.733965470670477 5.320717829763101 23.219304731675187 0 0 -1
4380 163 6 -0.266 3.613080712274569 5.382589419490537 23.104157925086227 0 0 -1
3892 145 4 -0.268 5.534060565807568 7.055994081000936 32.04789418301014 1 0 -2
5631 209 15 0.09 5.067284842048732 3.3304318271004343 28.56041640857061 0 1 0
5620 209 4 -0.268 4.328936532518947 5.302441385861176 29.324550574335962 0 1 0
5637 209 21 0.09 5.943785741469254 4.5619453118966025 25.459883905819577 0 1 0
2128 79 22 0.09 7.318308818749193 8.492743446756737 23.26710615881033 0 0 -1
1314 49 18 0.09 6.361591899371938 11.258515195713944 24.65354303817044 0 1 0
1313 49 17 0.09 5.300716795131862 10.701569132668682 23.477058439542034 0 1 0
3889 145 1 -0.266 5.842765582944107 10.30049476569078 32.06808500922698 1 0 -2
5634 209 18 0.09 3.6700696089578235 5.482781810578635 28.50847317893207 0 1 0
3900 145 12 0.09 5.202283410259994 11.140692560223354 31.722041351177353 1 0 -2
3905 145 17 0.09 4.3705242887935345 6.867635468192652 31.933227523781806 1 0 -2
1315 49 19 0.09 3.623033906438092 12.74362694970211 26.77285376873664 0 1 0
4602 171 12 0.09 5.53955153179113 3.333188357007883 23.392000026033244 0 1 0
3428 127 26 0.09 4.536844303298718 11.394622680515372 37.1334882772414 0 0 -1
2290 85 22 0.09 5.932072906758932 4.789993923605834 39.66030830644941 1 1 -1
2826 105 18 0.09 6.272309054551751 7.029437147952121 39.06366546659382 0 1 0
3901 145 13 0.09 4.0613075621745125 9.149658642855375 32.50748978506577 1 0 -2
994 37 22 0.09 4.136667222871582 5.006696133596815 37.67009018943987 1 1 -1
992 37 20 0.09 4.871451498338206 6.344935150655598 36.85876158539942 1 1 -1
2811 105 3 -0.098 6.187523389402447 9.202453060239534 39.00565151225482 0 1 0
2824 105 16 0.09 7.496874547735964 7.9292272277157325 40.18278788413194 0 1 0
981 37 9 -0.642 6.082894877004572 4.150449750404963 34.28543674925807 1 1 -1
2289 85 21 0.09 5.41303219380989 4.785847111082424 41.358669040696405 1 1 -1
3409 127 7 0.141 3.413686885599891 12.40435956095031 35.54444008224959 0 0 -1
2828 105 20 0.09 4.113889454213335 7.145750233853949 39.17849527109425 0 1 0
3890 145 2 -0.175 5.038771695007121 9.31393271490711 33.00199472208614 1 0 -2
2813 105 5 -0.104 4.865597680731761 9.099570228865518 39.81247275284771 0 1 0
2814 105 6 -0.266 3.818169644794393 8.213703619427132 39.06945771415689 0 1 0
2825 105 17 0.09 7.6903819578499215 7.745851994479946 38.50201577774667 0 1 0
991 37 19 0.09 4.1669059624277125 5.7278460080885525 34.84096567433532 1 1 -1
2288 85 20 0.09 7.075260694246361 5.035067100123507 40.92881290545441 1 1 -1
2827 105 19 0.09 4.386027027397448 10.14258569153839 39.67860532523312 0 1 0
3894 145 6 -0.266 7.523731958786825 9.211030556460436 34.73846333398464 1 0 -2
3897 145 9 -0.642 7.693005526803336 6.359547986486507 34.93401147330478 1 0 -2
2829 105 21 0.09 3.794059562139579 8.375706018156645 38.014746588827705 0 1 0
993 37 21 0.09 5.790624459224487 4.949197099491841 36.894827615141935 1 1 -1
2810 105 2 -0.175 7.0335169866412315 10.485260355370645 39.32383316791948 0 1 0
3893 145 5 -0.104 7.284034628749437 8.212511934402253 33.533626728859765 1 0 -2
978 37 6 -0.266 4.7268422869141595 5.22516159246258 36.794471958691126 1 1 -1
2812 105 4 -0.268 6.944577856194577 7.904932365201414 39.216561344069035 0 1 0
2822 105 14 0.09 7.457033397577995 10.253260628966213 40.3173953429685 0 1 0
979 37 7 0.141 4.929066286505571 3.5951999788674573 34.885361829292144 1 1 -1
2274 85 6 -0.266 6.16831700738262 4.4281325999836625 40.70014580024958 1 1 -1
3891 145 3 -0.098 5.750405396680023 7.988813556216601 33.30994899237855 1 0 -2
2815 105 7 0.141 4.929286895344168 8.819561572862455 41.326982051928006 0 1 0
3915 145 27 0.414 6.848121993498966 5.9257584882999055 34.68073061141729 1 0 -2
2823 105 15 0.09 5.951100548103547 9.281856456518266 37.896676611849884 0 1 0
3908 145 20 0.09 7.8124442683845094 8.733790321875432 35.691877604078755 1 0 -2
3909 145 21 0.09 6.6261080171864934 9.885874572057507 34.87510901542352 1 0 -2
3911 145 23 0.09 8.113636891033405 6.198620951837006 32.85158482287315 1 0 -2
3906 145 18 0.09 5.966012200125194 6.085874776252379 32.24883266345537 1 0 -2
3902 145 14 0.09 4.833081454437408 9.869493981670441 33.975542574841434 1 0 -2
2821 105 13 0.09 6.30967366043132 11.316010126919391 39.417017472779776 0 1 0
3903 145 15 0.09 5.324060779611008 7.503900349765963 34.18010728092186 1 0 -2
3417 127 15 0.09 4.867008609822791 12.390867929602459 33.347146402996486 0 0 -1
2282 85 14 0.09 3.6942844250389175 3.414341713456443 39.63097429248759 1 1 -1
998 37 26 0.09 3.9845829492410436 3.732309995446013 32.963310100266426 1 1 -1
3421 127 19 0.09 5.4613612039432855 12.738120718833981 35.74600364910219 0 0 -1
3907 145 19 0.09 7.776123942801945 8.660877205109244 32.66242619079442 1 0 -2
977 37 5 -0.104 4.04190270278977 4.781182618107398 35.443419344313774 1 1 -1
2831 105 23 0.09 5.781275338682484 8.113959404404717 41.53956339250901 0 1 0
3410 127 8 -0.266 3.523899719777813 11.897601546489597 36.99302636090906 0 0 -1
3427 127 25 0.09 3.4795210119033375 12.798929040709435 37.69354801512264 0 0 -1
2818 105 10 0.09 7.850695576417832 11.157980216226544 37.36037856131294 0 1 0
3425 127 23 0.09 3.5028653685946023 11.581454464495492 34.84150423318022 0 0 -1
999 37 27 0.414 6.727296183634192 3.429920618723301 34.32853378546609 1 1 -1
3899 145 11 0.09 6.711927506057625 10.764149937157871 32.57877291765554 1 0 -2
5745 213 21 0.09 8.070232622580793 3.844558328398369 38.06411011894311 1 1 -1
3000 112 3 -0.098 4.87867143260287 15.98823517675534 4.672806639297781 1 0 1
3149 117 17 0.09 7.2570296117517445 13.689987811598177 9.864981143008059 0 -1 0
687 26 12 0.09 3.621394117449681 15.057470128960915 8.399700413425805 0 1 0
5168 192 11 0.09 3.4527291847563077 17.56583559520108 10.27098028485753 0 0 0
3136 117 4 -0.268 6.2663084776832605 13.452737873492952 10.136182940398964 0 -1 0
2564 95 26 0.09 4.023250178333438 22.29749731241386 4.896527808260908 0 0 1
2562 95 24 0.09 5.4149969644237395 20.956730645231143 4.685605740960849 0 0 1
3713 138 14 0.09 7.025641178234681 20.322300968720466 12.630771385796416 0 1 1
3148 117 16 0.09 5.6329482366801855 13.243487612480621 9.278505826730292 0 -1 0
3008 112 11 0.09 6.039227836187214 15.927407360172452 7.646560919975815 1 0 1
3150 117 18 0.09 5.780561713147867 14.208590021587371 10.782152072358809 0 -1 0
5173 192 16 0.09 6.0432944745188255 17.237444003904752 12.023682560936845 0 0 0
3013 112 16 0.09 3.7838626449563804 17.120416800039557 6.210692849555005 1 0 1
3700 138 1 -0.266 6.277981419518232 21.924344635138482 11.249737112317963 0 1 1
3154 117 22 0.09 5.905990159943998 14.22871109358495 12.832762667875809 0 -1 0
5158 192 1 -0.266 3.4548151236255897 18.4516418251757 10.883552286872188 0 0 0
3010 112 13 0.09 7.104851063125446 16.28513748099454 4.7609322508159 1 0 1
3017 112 20 0.09 5.290023668422371 18.355307050683948 3.9182081684684835 1 0 1
2998 112 1 -0.266 6.3725355051239525 15.557517008669796 6.625160217275975 1 0 1
3012 112 15 0.09 4.883687401175673 14.894618633071415 4.535009249396426 1 0 1
3011 112 14 0.09 6.051177912120588 17.500657957048038 5.64600214215109 1 0 1
3711 138 12 0.09 6.053496267890036 21.14424160989936 10.468526759017369 0 1 1
2999 112 2 -0.175 6.14662928614174 16.414528479093555 5.362063938032566 1 0 1
2546 95 8 -0.266 4.825379049135344 21.841180972435893 4.235438004925408 0 0 1
2553 95 15 0.09 6.260730413132503 22.21651943214844 6.267912944816489 0 0 1
3003 112 6 -0.266 4.285730971667249 18.080895489359456 3.4811958308817847 1 0 1
5172 192 15 0.09 3.916648770766952 16.157369117071067 12.429482505089375 0 0 0
3007 112 10 0.09 5.931969236144463 14.591603996013603 6.6073005430923555 1 0 1
3701 138 2 -0.175 7.375596225592702 21.3299220256826 12.147604029201332 0 1 1
3014 112 17 0.09 3.6118200888049934 15.52577357261413 6.55443925341139 1 0 1
5169 192 12 0.09 4.288474862346905 19.07853514929144 10.525523849941907 0 0 0
1497 56 12 0.09 7.984093497770932 18.528761704922978 8.345064442795191 0 1 1
3001 112 4 -0.268 3.73914407785116 16.141487937883856 5.686856890018301 1 0 1
5609 208 20 0.09 3.562007534520547 20.83403164855612 7.79999168163377 1 0 1
3009 112 12 0.09 7.571835322152123 15.467438155857367 6.746565492277561 1 0 1
5159 192 2 -0.175 3.3858515213204954 18.296343962100238 12.43286877933416 0 0 0
3710 138 11 0.09 5.39252608147325 22.253288572024534 11.749642107015857 0 1 1
3018 112 21 0.09 3.5092441179922242 18.294164349312716 4.223870674555816 1 0 1
5171 192 14 0.09 3.818669754850072 19.250913375228148 12.836457443886317 0 0 0
2563 95 25 0.09 4.294814993141043 21.385240449709997 3.370061883746185 0 0 1
3002 112 5 -0.104 4.375489952409785 16.520724607987283 3.350299309063226 1 0 1
2431 91 1 -0.266 5.0536894270730865 20.14385889550969 17.856351974713 1 0 0
5178 192 21 0.09 4.142470886470477 18.772684575259323 15.145941582216041 0 0 0
5160 192 3 -0.098 4.152639430585733 17.054623077208447 13.033896146030434 0 0 0
2440 91 10 0.09 4.886795738575904 19.67115211950717 18.83309427851503 1 0 0
2445 91 15 0.09 6.174362905124853 21.683457161269533 19.81761652738811 1 0 0
4570 170 7 0.141 7.608160276830138 19.944470296837963 21.962543134842466 0 0 0
2434 91 4 -0.268 7.819645710967705 21.842695144085607 18.607319183713475 1 0 0
4705 175 7 0.141 7.084132811830107 15.000839449446856 19.399249123541324 1 0 0
2442 91 12 0.09 4.160844676900742 19.942813976923052 17.21868493508154 1 0 0
2432 91 2 -0.175 5.180814817445566 21.649667611889925 17.897932312162563 1 0 0
5174 192 17 0.09 6.216267453133824 16.449451923971232 13.507978702753736 0 0 0
4725 175 27 0.414 5.639813937208729 15.555190179696762 18.40257397607212 1 0 0
2668 99 22 0.09 3.401101840363863 16.535400189465676 20.16133210934899 0 0 0
4703 175 5 -0.104 7.68648080172136 14.017436342498543 18.383475267594655 1 0 0
3705 138 6 -0.266 7.733352666653771 20.376926192991295 15.111851885187898 0 1 1
3138 117 6 -0.266 6.400625011897043 13.400520974458932 13.351014225639757 0 -1 0
4720 175 22 0.09 5.989786750182692 14.230239006670983 17.0127999128684 1 0 0
3702 138 3 -0.098 7.845435488412746 22.211941891375133 13.388995743948604 0 1 1
5175 192 18 0.09 5.851092560207997 18.23538614171749 13.568307007496417 0 0 0
2444 91 14 0.09 5.367511703106677 22.076407501015 16.870507692348955 1 0 0
4721 175 23 0.09 6.354364133871828 14.5729569369824 20.111291197432497 1 0 0
2454 91 24 0.09 4.981072674458836 22.285291067543195 21.444314054315612 1 0 0
4579 170 16 0.09 5.671738219868795 18.504094813845214 20.626930925758955 0 0 0
5176 192 19 0.09 4.6292616243621545 16.1642760457115 15.01567387798634 0 0 0
4707 175 9 -0.642 6.513245717705948 16.00142585917886 18.593660337550034 1 0 0
4567 170 4 -0.268 4.8964956087778475 19.038060673975604 21.21312618887319 0 0 0
2433 91 3 -0.098 6.302113717292613 22.203116371036057 18.853890891630535 1 0 0
4581 170 18 0.09 3.9572713220364935 18.478603404044563 20.972332058206977 0 0 0
5161 192 4 -0.268 5.651858783395191 17.238106516972003 13.044932657803574 0 0 0
2443 91 13 0.09 4.227355595177152 22.12503172632716 18.339992827221188 1 0 0
4722 175 24 0.09 7.732784189172357 16.630136775329348 20.73708055063747 1 0 0
4580 170 17 0.09 4.754000154413562 20.080968086566607 20.88488201006074 0 0 0
3720 138 21 0.09 6.715540726295842 20.692664236383848 15.215695487816042 0 1 1
2441 91 11 0.09 6.067442940462737 19.738264877876595 17.511744620061314 1 0 0
4586 170 23 0.09 7.330832348621718 19.830000090994005 20.896630694873494 0 0 0
2655 99 9 -0.642 3.751492365962806 14.90783390729856 17.851786374125275 0 0 0
2666 99 20 0.09 3.6887708060180047 15.279976241857256 21.433848778933527 0 0 0
4704 175 6 -0.266 6.602920358596235 13.409035964977432 17.51434521335348 1 0 0
2669 99 23 0.09 4.056482232572898 13.814111374861778 19.594966787540628 0 0 0
2446 91 16 0.09 7.904831004793746 20.690777153741024 18.557514903864515 1 0 0
659 25 11 0.09 8.049914655672467 16.303069035995584 15.739719087309778 0 1 0
3152 117 20 0.09 7.123065233828622 13.770201949985493 14.112872644971773 0 -1 0
5162 192 5 -0.104 3.7679567356046766 16.669632551995235 14.496929116432849 0 0 0
4589 170 26 0.09 7.996904224657403 22.161823734716606 22.169970842818717 0 0 0
5181 192 24 0.09 3.440053385584149 14.227033178586789 13.210718730153673 0 0 0
3719 138 20 0.09 7.726808099378009 19.362887630782087 14.609111133139201 0 1 1
5183 192 26 0.09 3.5252957781119636 13.833593899240276 14.910759857384358 0 0 0
4706 175 8 -0.266 8.114168607881357 15.779780047020996 20.188887014920773 1 0 0
5163 192 6 -0.266 3.356032361181696 17.967403944959987 15.239198364854296 0 0 0
4565 170 2 -0.175 4.0338475562238205 19.476946227314063 23.655137501032165 0 0 0
1306 49 10 0.09 4.335362480803475 15.317107378147476 24.057254599209298 0 1 0
4584 170 21 0.09 7.244422536470552 18.241152845603537 24.4004611415211 0 0 0
1308 49 12 0.09 5.983715870512319 15.860372314193528 24.591928143907836 0 1 0
5428 202 1 -0.266 7.654651639942129 17.017577678730348 31.665277905619416 2 -1 1
5441 202 14 0.09 8.07159337935998 18.527313515584066 30.155826845723265 2 -1 1
4569 170 6 -0.266 7.0871005453592595 19.322674067878257 24.410603652990364 0 0 0
3403 127 1 -0.266 4.2199550505553916 14.352850982029011 31.45195261967788 0 0 -1
4577 170 14 0.09 3.7936288367511497 20.58631103792689 23.577901437216322 0 0 0
2631 98 12 0.09 3.5429075345056074 17.36757224281922 26.106725365947455 0 1 0
4566 170 3 -0.098 5.206257376959895 19.069817050419637 22.71427678954536 0 0 0
1298 49 2 -0.175 5.372756309093965 13.817177745317798 25.135664906202194 0 1 0
4585 170 22 0.09 6.340432460023523 19.362187561971812 25.190283409988822 0 0 0
102 4 21 0.09 5.767441678056393 20.042639073528576 29.73635802778955 0 -1 0
88 4 7 0.141 4.786117674873654 22.045369344153247 31.65195131510388 0 -1 0
4582 170 19 0.09 6.127382515213089 20.90327917556147 23.300511544631263 0 0 0
1307 49 11 0.09 5.790754180377435 14.773139785181844 23.188109112289535 0 1 0
103 4 22 0.09 4.298229143422692 21.017421002335414 29.430114450064906 0 -1 0
101 4 20 0.09 4.188766992881451 19.16172690272979 29.886440057948832 0 -1 0
3412 127 10 0.09 4.422719118677318 13.332620597945596 31.046244576977976 0 0 -1
4576 170 13 0.09 4.310052389764954 19.362166517156915 24.75012794527001 0 0 0
1309 49 13 0.09 5.032472842979761 14.124295882655664 26.157533264974216 0 1 0
86 4 5 -0.104 4.5397803815463895 20.58476849284841 31.536820121051893 0 -1 0
2629 98 10 0.09 4.362190226772963 17.73181821791245 27.65753841067564 0 1 0
5439 202 12 0.09 6.752371897916344 16.718929780592532 31.097708313766436 2 -1 1
1310 49 14 0.09 6.480574388113684 13.5715538228535 25.362809527168952 0 1 0
1254 47 12 0.09 8.000027816108934 14.625898148860475 28.813505357979434 1 -1 0
2620 98 1 -0.266 3.3888880398564685 17.392002655272258 27.205558551057134 0 1 0
1297 49 1 -0.266 5.339875195362037 15.013372715443525 24.16031679445099 0 1 0
4578 170 15 0.09 5.487679270807941 17.983732673260818 22.943690067029852 0 0 0
90 4 9 -0.642 6.097810453074033 22.35359836961373 31.215563110417698 0 -1 0
4568 170 5 -0.104 6.517845476011046 19.85251128871422 23.06726532073964 0 0 0
3413 127 11 0.09 4.943502712130929 15.09946035784433 31.107918232937237 0 0 -1
87 4 6 -0.266 4.676399707320366 20.15582335213601 30.040851155422477 0 -1 0
4583 170 20 0.09 8.018392993758017 19.79685020471333 24.811771932080603 0 0 0
1252 47 10 0.09 7.48386267945597 15.886127319011289 27.680641819167324 1 -1 0
4907 182 20 0.09 6.150735639204434 21.938553483494623 25.790894747695525 1 -1 -1
5440 202 13 0.09 7.361231108978349 19.18618684076607 31.551653028506642 2 -1 1
4909 182 22 0.09 4.992706144713054 22.168415030136803 27.084632663899075 1 -1 -1
5429 202 2 -0.175 8.11062512084375 18.42577111990903 31.219499085990197 2 -1 1
5447 202 20 0.09 7.957933026168815 20.8307844118306 30.355012094013663 2 -1 1
2633 98 14 0.09 3.6189659982156375 15.26334838018741 27.75442289150054 0 1 0