LAMMPS data file via write_data, version 29 Aug 2024, timestep = 1000000, units = real

7168 atoms
14 atom types
6656 bonds
13 bond types
11264 angles
22 angle types
10752 dihedrals
21 dihedral types
3584 impropers
7 improper types

0.24450104733030997 44.755498952684874 xlo xhi
0.24450104733030997 44.755498952684874 ylo yhi
0.24450104733030997 44.755498952684874 zlo zhi

Masses

1 12.011
2 12.011
3 15.999
4 12.011
5 15.999
6 12.011
7 1.008
8 1.008
9 1.008
10 1.008
11 1.008
12 1.008
13 1.008
14 1.008

Pair Coeffs # lj/charmmfsw/coul/long

1 0.078 3.65268 0.01 3.38542
2 0.055999 3.58141 0.01 3.38542
3 0.1 2.93997 0.1 2.93997
4 0.098 3.02906 0.098 3.02906
5 0.12 3.02906 0.12 2.49452
6 0.078 3.65268 0.01 3.38542
7 0.024001 2.38761 0.024001 2.38761
8 0.024001 2.38761 0.024001 2.38761
9 0.024001 2.38761 0.024001 2.38761
10 0.035 2.38761 0.035 2.38761
11 0.035 2.38761 0.035 2.38761
12 0.024001 2.38761 0.024001 2.38761
13 0.024001 2.38761 0.024001 2.38761
14 0.024001 2.38761 0.024001 2.38761

Bond Coeffs # harmonic

1 222.5 1.528
2 320 1.44
3 150 1.334
4 750 1.22
5 200 1.522
6 322 1.111
7 322 1.111
8 322 1.111
9 309 1.111
10 309 1.111
11 322 1.111
12 322 1.111
13 322 1.111

Angle Coeffs # charmm

1 75.7 110.1 0 0
2 40 109.6 30 2.2651
3 90 125.9 160 2.2576
4 55 109 20 2.326
5 34.6 110.1 22.53 2.179
6 34.6 110.1 22.53 2.179
7 34.6 110.1 22.53 2.179
8 34.6 110.1 22.53 2.179
9 34.6 110.1 22.53 2.179
10 33 109.5 30 2.163
11 33 109.5 30 2.163
12 33 109.5 30 2.163
13 70 125 20 2.442
14 35.5 108.4 5.4 1.802
15 35.5 108.4 5.4 1.802
16 35.5 108.4 5.4 1.802
17 60 109.5 0 0
18 35.5 109 5.4 1.802
19 35.5 108.4 5.4 1.802
20 35.5 108.4 5.4 1.802
21 35.5 108.4 5.4 1.802
22 60 109.5 0 0

Dihedral Coeffs # charmmfsw

1 0 3 0 1
2 0.965 1 180 1
3 0.195 3 0 1
4 0 3 0 1
5 0 6 180 1
6 0.16 3 0 1
7 0 3 0 1
8 0 3 0 1
9 2.05 2 180 1
10 0.16 3 0 1
11 0.16 3 0 1
12 0 6 180 1
13 0.16 3 0 1
14 0.16 3 0 1
15 0.16 3 0 1
16 0.195 3 0 1
17 0.195 3 0 1
18 0 3 0 1
19 0 3 0 1
20 0 6 180 1
21 3.85 2 180 0

Improper Coeffs # harmonic

1 62 0
2 0 0
3 0 0
4 0 0
5 0 0
6 0 0
7 0 0

Atoms # full

4666 334 4 0.898 8.66981191657777 1.6868902630381621 4.990956233928162 -1 2 -3
3380 242 6 -0.313 6.627755411999035 4.844506366385244 5.282851163314759 -1 2 1
5678 406 8 0.09 10.973613131512291 0.47944394659994327 2.02098337729975 0 4 1
2908 208 10 0.09 10.273696045303524 3.090399766302665 0.9457421459342279 1 1 3
6491 464 9 0.09 11.264116410399502 9.453332165693816 0.9442881529484732 1 4 -1
3387 242 13 0.09 6.35163777419873 4.1513180617094445 4.466836326656604 -1 2 1
4668 334 6 -0.313 9.770778908896414 2.6844219913788745 4.8964778856541145 -1 2 -3
4674 334 12 0.09 10.683670109096466 2.247992551459279 5.3535267345088995 -1 2 -3
2903 208 5 -0.617 8.39281107704541 5.017815789177466 1.6577205901027077 1 1 3
4663 334 1 -0.274 5.445848863903757 1.6337151294142673 3.2993468631151677 -1 2 -3
4675 334 13 0.09 9.375705189979374 3.6648634295860103 5.270906579171258 -1 2 -3
248 18 10 0.09 4.842015615648654 10.502677273670662 0.32327899803251997 0 0 0
6782 485 6 -0.313 2.131119353627662 2.559034032859944 5.109074066194089 0 0 3
4667 334 5 -0.617 8.740187971627924 0.6585025562555105 5.618996960680781 -1 2 -3
1943 139 11 0.09 0.6393616908189561 5.579012591075089 2.3586323362915116 -1 0 -2
3427 245 11 0.09 7.39714878050437 10.164388899877824 3.5690091369624435 -2 0 -1
3376 242 2 0.079 3.6394258313032672 6.995378657559374 5.508731562409282 -1 2 1
246 18 8 0.09 4.353248206436358 8.5531526961731 2.1073262895272475 0 0 0
3425 245 9 0.09 8.57445761773334 7.907421797430678 4.148370475491239 -2 0 -1
247 18 9 0.09 5.661662667658334 9.218144046941285 2.9970414940504875 0 0 0
3417 245 1 -0.274 8.992102196633653 8.611699317481088 3.342923203925837 -2 0 -1
241 18 3 -0.493 4.065738473203729 11.043518943610534 2.3327233138904178 0 0 0
1939 139 7 0.09 0.40688418067252186 8.073916499231167 2.4891616905459557 -1 0 -2
4671 334 9 0.09 5.683979317654975 1.385381805754234 2.2727797058489965 -1 2 -3
3385 242 11 0.09 3.678265805820167 7.707422070758983 4.65576697366949 -1 2 1
4670 334 8 0.09 4.477624770886593 1.042008027401521 3.5051010570735 -1 2 -3
3379 242 5 -0.617 6.277141458531822 7.22157507072114 5.5395934543984735 -1 2 1
2909 208 11 0.09 8.487689078570147 2.628484379452112 1.0811168019873232 1 1 3
2900 208 2 0.079 9.332466679020415 2.91396133245286 0.35942442248482737 1 1 3
4669 334 7 0.09 5.326208239107494 2.7079377324009126 3.5153221014293834 -1 2 -3
3378 242 4 0.898 5.782874048884567 6.115751205109246 5.343215712018821 -1 2 1
3426 245 10 0.09 8.939029682796663 10.400267386965014 4.527838997431265 -2 0 -1
240 18 2 0.079 5.126672399894817 10.535787110242138 1.456661572335556 0 0 0
3383 242 9 0.09 1.713576978273339 6.355415601529751 4.512200070961947 -1 2 1
3419 245 3 -0.493 9.087710483706974 10.847855456771725 2.4972726446384943 -2 0 -1
587 42 13 0.09 3.0133739047958703 10.159778716226834 5.199835384243818 0 2 -1
1944 139 12 0.09 5.075865314449761 4.569008136308397 2.434252770357295 -1 0 -2
1938 139 6 -0.313 4.728163503236376 5.445166339664673 1.8112008880648724 -1 0 -2
4664 334 2 0.079 6.54096773565032 1.0448672705265523 4.256545957357682 -1 2 -3
249 18 11 0.09 6.0675395582997815 11.051530597111837 1.6551176704446373 0 0 0
3424 245 8 0.09 8.611163579318267 8.241492418389942 2.379658309349826 -2 0 -1
1935 139 3 -0.493 2.510841188630413 6.383068292666374 1.779979294495534 -1 0 -2
4665 334 3 -0.493 7.662260315992608 1.9481723199562833 4.142682570464838 -1 2 -3
3377 242 3 -0.493 4.491650153918446 5.863229142099414 5.29142107732019 -1 2 1
3418 245 2 0.079 8.504190176568576 10.072548794127039 3.5588101905041403 -2 0 -1
3423 245 7 0.09 10.016119341970251 8.43476388520828 3.310352085550115 -2 0 -1
239 18 1 -0.274 5.284740847281946 9.168243805259825 2.0246633210078233 0 0 0
245 18 7 0.09 5.949796790114816 8.578525635846432 1.4024289271460955 0 0 0
3375 242 1 -0.274 2.1449416849263705 6.557948238987563 5.579844259682807 -1 2 1
6789 485 13 0.09 2.6076100658323744 2.938220355681652 4.149556905749202 0 0 3
2902 208 4 0.898 8.599744844236339 5.17159326757016 0.48089630500532266 1 1 3
1937 139 5 -0.617 2.7891561373573897 4.18254126696088 1.0572213157215473 -1 0 -2
6790 485 14 0.09 2.1606314156980626 1.4644682679767667 5.202612072379238 0 0 3
1942 139 10 0.09 0.858270661835046 5.682697116912335 0.6826260999179938 -1 0 -2
4673 334 11 0.09 6.251749122934699 1.11323962627836 5.372045974535936 -1 2 -3
3386 242 12 0.09 7.654451576627043 5.186918113944137 5.092411974441483 -1 2 1
1934 139 2 0.079 1.109816135437102 6.246068259134262 1.6104683719330393 -1 0 -2
6780 485 4 0.898 0.6986031528522231 3.0670012216631313 5.031546508463367 0 0 3
4676 334 14 0.09 9.995976395464632 2.8362807317962306 3.81803984571382 -1 2 -3
1933 139 1 -0.274 0.5018711156314085 7.638507813477594 1.5156447527578034 -1 0 -2
1945 139 13 0.09 4.8230297276874925 6.346206519247349 2.4209274395518467 -1 0 -2
1936 139 4 0.898 3.2229422320668633 5.231804781463946 1.537697698272297 -1 0 -2
1946 139 14 0.09 5.3549153570468215 5.478875647673974 0.9216488401027277 -1 0 -2
3528 252 14 0.09 0.9264787824246812 0.7580536800692549 2.4234482810104874 -2 0 1
2912 208 14 0.09 9.102264197213096 7.173396077618176 0.6880668782431156 1 1 3
1941 139 9 0.09 1.187822765552406 8.241661814703948 0.9051070726939336 -1 0 -2
1211 87 7 0.09 11.218228124706291 4.43297881995534 2.927470360268846 1 0 2
747 54 5 -0.617 3.910033126972137 10.845859091001433 11.253425068258453 0 0 2
2749 197 5 -0.617 6.182044919189687 2.3311767719827827 7.618116410846413 -3 2 1
385 28 7 0.09 2.393125958664435 5.987222185687286 10.41728356089718 -1 0 0
4612 330 6 -0.313 8.231092462361701 11.301182101083777 9.872667537802297 0 0 0
581 42 7 0.09 5.157379381724552 7.373255062597739 10.074447920080813 0 2 -1
576 42 2 0.079 4.887183786340187 8.89627514817712 8.614197645380152 0 2 -1
575 42 1 -0.274 4.438897734983494 7.563161040071826 9.256493341332053 0 2 -1
583 42 9 0.09 3.4405080109454467 7.756195516975962 9.7015173632024 0 2 -1
756 54 14 0.09 1.3449083877319066 10.680470736812383 10.041981929592348 0 0 2
5284 378 6 -0.313 8.832061513133699 9.134038618031168 7.027740265139752 1 1 2
379 28 1 -0.274 2.740538020899475 5.014019065511631 10.057268147425102 -1 0 0
584 42 10 0.09 5.9481008550416865 8.854163385276467 8.26816138654171 0 2 -1
386 28 8 0.09 2.7162969742226157 4.945400128993956 8.97035094454523 -1 0 0
5288 378 10 0.09 8.141087625506973 6.584829485572576 9.935108031837345 1 1 2
4619 330 13 0.09 7.4257219965438575 10.569663110538842 9.492070794295174 0 0 0
579 42 5 -0.617 5.620031485422593 10.694828646003957 6.882396999188197 0 2 -1
4620 330 14 0.09 9.245003782959776 10.926953247319906 10.044369714180398 0 0 0
6788 485 12 0.09 2.6289464201983663 3.0519283520012013 5.965920836086681 0 0 3
2896 207 12 0.09 0.7886473214067119 7.8156591700817515 9.291464127500848 0 -1 -1
748 54 6 -0.313 1.4009597363784356 10.997046223119744 11.120005277163594 0 0 2
3384 242 10 0.09 3.949471414576121 7.523212157173304 6.34198358618027 -1 2 1
586 42 12 0.09 2.609205797558979 11.13993170204262 6.593960409990326 0 2 -1
388 28 10 0.09 1.399784494576047 3.301259250433814 9.82454930547684 -1 0 0
578 42 4 0.898 4.499049486794045 10.281312132357785 6.868109499093255 0 2 -1
5290 378 12 0.09 8.315641097869001 9.859068767796336 7.729457747440792 1 1 2
5283 378 5 -0.617 9.132916688081227 6.691974998653335 7.491346954022362 1 1 2
5292 378 14 0.09 9.718052552172121 9.594667849485736 6.6264689777202275 1 1 2
5280 378 2 0.079 9.079804619493359 7.227796558024191 10.03327652100515 1 1 2
577 42 3 -0.493 3.9641955625287744 9.344897729489736 7.598992470062892 0 2 -1
389 28 11 0.09 0.9938898182526417 4.426478070704721 11.096982077794136 -1 0 0
2757 197 13 0.09 6.344290183573686 4.177176620745678 9.967773430600976 -3 2 1
3388 242 14 0.09 6.538215088685777 4.4128795937765055 6.325662287119208 -1 2 1
2748 197 4 0.898 6.543641714161811 2.436868882147785 8.77274504482807 -3 2 1
2897 207 13 0.09 0.5272674214262756 6.849158653424313 7.780166156974668 0 -1 -1
387 28 9 0.09 3.784295972551771 4.912415914806437 10.299263266645221 -1 0 0
2756 197 12 0.09 7.945065889369806 3.2754781742469423 10.161848174852448 -3 2 1
380 28 2 0.079 1.8206953762966498 3.9022679316330136 10.613401194010336 -1 0 0
580 42 6 -0.313 3.454686314884603 10.793639989613695 5.9756503733693185 0 2 -1
585 42 11 0.09 4.92536921406047 9.530715823063261 9.476034834756838 0 2 -1
582 42 8 0.09 4.4348871492233535 6.731239524339768 8.571873084772244 0 2 -1
2758 197 14 0.09 7.598372658927612 4.302676204480732 8.580662279009603 -3 2 1
2750 197 6 -0.313 7.168802763111349 3.6499670353730327 9.396009912460213 -3 2 1
5291 378 13 0.09 8.136218939095262 8.853690193500345 6.196954004164369 1 1 2
5289 378 11 0.09 9.783854867984141 6.422535234157178 9.78653228017657 1 1 2
5345 382 11 0.09 1.9899831405694446 0.6169754031417893 9.143578555110235 3 1 -1
2747 197 3 -0.493 6.496284673856296 1.4941642656129974 9.676387539689394 -3 2 1
5281 378 3 -0.493 9.184301410031118 8.301967322143867 9.099680480198193 1 1 2
5282 378 4 0.898 9.08632736990682 7.864143100631068 7.8297372764715645 1 1 2
3382 242 8 0.09 2.0086488531860422 5.806866467054242 6.325976797302296 -1 2 1
5344 382 10 0.09 0.39702852432936764 0.41916630925001397 8.438848919160412 3 1 -1
3381 242 7 0.09 1.451850123477411 7.474994298853706 5.881009270761615 -1 2 1
1402 101 2 0.079 3.767409832201894 6.663735657163055 13.57132730866366 1 -1 -1
1407 101 7 0.09 4.032892897433242 5.150624115106921 15.193591739618725 1 -1 -1
1408 101 8 0.09 3.3314786872285267 4.575562413945026 13.631919028132602 1 -1 -1
1403 101 3 -0.493 3.430045872400419 7.96748518491429 14.236907672318887 1 -1 -1
775 56 5 -0.617 6.510910296930576 4.991655232065073 12.25976399697141 1 0 0
4613 330 7 0.09 7.961883619459238 9.390836124778092 14.207873533794846 0 0 0
784 56 14 0.09 6.0856392237541215 2.398435253649199 12.079136027555688 1 0 0
780 56 10 0.09 8.12976986486993 6.284310395182198 13.532929367771738 1 0 0
7009 501 9 0.09 5.139034991000908 1.7431089179292925 15.860229687913792 1 1 1
772 56 2 0.079 7.4819343769548246 5.991277962380359 14.426304030245305 1 0 0
392 28 14 0.09 1.6537420766568627 0.41602179317165566 13.349239305469007 -1 0 0
391 28 13 0.09 3.179709587092313 0.7479867514970465 12.196948001294981 -1 0 0
4681 335 5 -0.617 1.1008019244050402 2.106838663279924 15.784240064054698 2 1 -2
382 28 4 0.898 1.5671743108476972 2.2202157516753784 12.217216721856614 -1 0 0
1401 101 1 -0.274 3.3405550642654758 5.4602584788661535 14.34603957406407 1 -1 -1
384 28 6 -0.313 2.3583097853235473 1.1723614878717674 12.912909148002196 -1 0 0
773 56 3 -0.493 7.0102753200520045 4.606839532469871 14.408834822748734 1 0 0
1411 101 11 0.09 4.854014302182032 6.649777162032362 13.255440856206736 1 -1 -1
5286 378 8 0.09 9.397778150498741 6.9259259206415305 12.160865600681932 1 1 2
4607 330 1 -0.274 6.912167853556952 9.726474893558706 14.057309519771096 0 0 0
381 28 3 -0.493 2.427907831553058 3.0825770081736885 11.584985683983424 -1 0 0
1405 101 5 -0.617 1.4560298475215627 7.870211670997484 13.083203432282069 1 -1 -1
7001 501 1 -0.274 5.845390491359711 2.226962495284202 16.593232653574248 1 1 1
1388 100 2 0.079 10.999972779936696 11.237021980125895 14.262686529585812 0 1 -1
774 56 4 0.898 6.653096379326486 4.2109474452044635 13.190691208313515 1 0 0
4608 330 2 0.079 6.796806841896898 10.96020697236056 13.226322227584186 0 0 0
7008 501 8 0.09 5.905015881017849 3.333705416757187 16.604591705548884 1 1 1
1409 101 9 0.09 2.338973613396124 5.6652524160650755 14.715694500027634 1 -1 -1
3542 253 14 0.09 10.775530229721578 2.7434830721240173 16.31006938270254 1 2 -1
1395 100 9 0.09 9.673570989648526 10.69421119578046 15.882083195596628 0 1 -1
5287 378 9 0.09 8.47568143038518 8.56000647495957 11.781369979711975 1 1 2
1404 101 4 0.898 2.156690884704163 8.34068741577875 13.961057849535997 1 -1 -1
779 56 9 0.09 7.592371681931153 5.555697445107592 16.551424153617656 1 0 0
1413 101 13 0.09 2.4904793081299386 9.974343059238473 15.359831028333153 1 -1 -1
6100 436 10 0.09 10.49807752936857 1.5841719024576981 12.484394840751554 0 2 -2
755 54 13 0.09 1.3559037805809968 10.145934534202992 11.806196918356934 0 0 2
5285 378 7 0.09 10.185025750657239 8.304839434141384 11.566521637795544 1 1 2
1414 101 14 0.09 1.2626730791588354 8.787000207782254 15.82876431892206 1 -1 -1
4609 330 3 -0.493 7.462625993028667 10.657546283109465 12.05583543665304 0 0 0
1410 101 10 0.09 3.213827388044654 6.55832662052332 12.595857110969835 1 -1 -1
1394 100 8 0.09 11.019006018376956 9.601289146145618 15.616037684523604 0 1 -1
1396 100 10 0.09 10.404805719739034 10.677497620328245 13.483438408624131 0 1 -1
390 28 12 0.09 2.996362108662369 1.661957047297797 13.74116978261683 -1 0 0
783 56 13 0.09 7.034702004000006 2.282716250112144 13.60733016033831 1 0 0
777 56 7 0.09 8.669139467155233 6.954106252871285 16.079477711088586 1 0 0
776 56 6 -0.313 6.229765734700453 2.7523650970199203 13.115998365629249 1 0 0
781 56 11 0.09 6.5763977947619505 6.6052002631540985 14.539764154766017 1 0 0
4614 330 8 0.09 6.512075066204725 8.87489907831394 13.495970597407657 0 0 0
6109 437 5 -0.617 8.663435986253141 0.36270516494216 14.377071021998285 -1 1 -2
1406 101 6 -0.313 1.664039683408647 9.271091172586345 14.979684524966446 1 -1 -1
4680 335 4 0.898 0.8713057494724435 2.532284800157738 16.912468372244113 2 1 -2
782 56 12 0.09 5.256891851024416 2.6375119916218064 13.674975621984828 1 0 0
4615 330 9 0.09 6.3630918458549806 9.835493063973441 14.998681145046458 0 0 0
771 56 1 -0.274 8.215354016162683 6.03627156014115 15.720729258781656 1 0 0
6098 436 8 0.09 10.925943125131562 3.9657173449103125 12.442268074617452 0 2 -2
3541 253 13 0.09 8.953684327130519 2.2455961650229894 16.048726071687327 1 2 -1
778 56 8 0.09 9.062402693307941 5.359983306380981 15.63267897496902 1 0 0
3190 228 12 0.09 4.870324676067364 7.571177602446752 16.355526866881146 3 0 -1
7007 501 7 0.09 6.880155766849502 1.9495915902679657 16.293478362162652 1 1 1
1387 100 1 -0.274 10.752024863863598 10.66189294815785 15.600421239806309 0 1 -1
383 28 5 -0.617 0.3542989928926038 2.2435093922590834 12.158194184578857 -1 0 0
5279 378 1 -0.274 9.255515537870004 7.769735253991951 11.488342370491443 1 1 2
1412 101 12 0.09 0.8823937253652979 9.866980530951034 14.517181834330971 1 -1 -1
3534 253 6 -0.313 9.742989714714605 2.693865948579468 16.728917413504856 1 2 -1
3481 249 9 0.09 0.5189795741013139 6.886686224399599 16.50705865162764 1 -1 1
4617 330 11 0.09 5.744304146412536 11.049759774811484 12.936963585058447 0 0 0
3191 228 13 0.09 3.6595299399114793 8.795651865282803 16.92896374037838 3 0 -1
4688 335 12 0.09 2.147590601854317 4.338192688305011 16.90169287482648 2 1 -2
3539 253 11 0.09 10.290727762211946 1.4304881717294462 20.426028392758884 1 2 -1
6450 461 10 0.09 6.278271923515596 4.916951328048054 19.254696777654388 2 0 2
3536 253 8 0.09 7.203950370005438 2.173328366270064 20.736102825445503 1 2 -1
3533 253 5 -0.617 10.642597188339488 0.7730920982490406 17.94332843075615 1 2 -1
256 19 4 0.898 1.6899243281842526 9.932656586508049 18.921504810470974 1 -2 -3
968 70 2 0.079 1.3791442526786961 5.231037694967446 21.33988336505961 0 2 -1
6444 461 4 0.898 5.860471075010787 6.234452572513695 21.449066456068614 2 0 2
6451 461 11 0.09 6.390457620991875 6.4853756075722995 18.155501609472402 2 0 2
6445 461 5 -0.617 6.170885946461101 5.090650713547134 21.69360569680987 2 0 2
6448 461 8 0.09 8.835902188975309 5.682386286748436 18.64073635344293 2 0 2
2798 200 12 0.09 8.21422711802431 9.909435906678516 21.903758500808358 -1 2 2
2790 200 4 0.898 10.32066984291251 9.565963158910632 22.11172037499082 -1 2 2
3532 253 4 0.898 9.952703777308695 1.7485930064020292 17.90464536514013 1 2 -1
3181 228 3 -0.493 5.352325639606325 10.468174751863971 17.686982511568697 3 0 -1
969 70 3 -0.493 2.362879000255141 4.6036140777252506 22.16400641328414 0 2 -1
254 19 2 0.079 3.0756181259608337 9.873053735826057 20.85486758636596 1 -2 -3
264 19 12 0.09 1.8194321355683563 11.141040197434261 17.30602723079844 1 -2 -3
971 70 5 -0.617 2.961297148657272 3.2134100270357773 20.444811369556508 0 2 -1
258 19 6 -0.313 1.0371788465419047 10.904475937429103 18.02987636406019 1 -2 -3
257 19 5 -0.617 1.6506151109677223 8.683165461393173 18.808072183396142 1 -2 -3
6442 461 2 0.079 6.620724388028944 6.019059761675631 19.163579133478077 2 0 2
7010 501 10 0.09 5.913180467138537 2.2574559565020795 18.792045421248293 1 1 1
3531 253 3 -0.493 9.083426338903072 2.121882659808435 18.807945438627854 1 2 -1
3537 253 9 0.09 8.4795735782926 3.1869825486367716 21.146502820046727 1 2 -1
2792 200 6 -0.313 8.92320027275203 9.081321091566318 22.232421628369494 -1 2 2
3530 253 2 0.079 9.193002570984744 1.4430188138140685 20.019445888941306 1 2 -1
4682 335 6 -0.313 1.7249700707644033 3.5925679074407557 17.665341907144775 2 1 -2
977 70 11 0.09 1.8337327033303952 5.3589464911751845 20.29982684870584 0 2 -1
262 19 10 0.09 2.3716379852208584 9.431844357684652 21.61365653665347 1 -2 -3
6447 461 7 0.09 8.306549495213597 7.302513384900124 19.285948881276763 2 0 2
2789 200 3 -0.493 10.419978409583129 10.87618381174984 21.913275869891063 -1 2 2
3192 228 14 0.09 4.437375165069709 7.636744876966736 18.11661035101978 3 0 -1
7013 501 13 0.09 1.8784017338938392 0.7149747799546535 19.794948337733757 1 1 1
3529 253 1 -0.274 8.300958090145713 2.1180318547928123 21.02319036894513 1 2 -1
253 19 1 -0.274 4.066911004969061 10.790851316448254 21.53372689016249 1 -2 -3
7003 501 3 -0.493 4.29884075759699 1.0493458121183346 17.941714717283023 1 1 1
259 19 7 0.09 5.080880898363863 10.566709050755902 21.377749710044473 1 -2 -3
3538 253 10 0.09 8.867374199681548 0.4050351185386759 19.891957147042458 1 2 -1
263 19 11 0.09 3.475617871120769 9.055118507904913 20.319138839560228 1 -2 -3
6449 461 9 0.09 8.462457990052465 5.864245364327704 20.349390188611654 2 0 2
6443 461 3 -0.493 6.006996823742802 6.833665474024706 20.240717213469086 2 0 2
6441 461 1 -0.274 8.111152819255125 6.211600241107373 19.307115846860786 2 0 2
7011 501 11 0.09 6.410019213860123 0.583825498206425 17.915275668981998 1 1 1
7006 501 6 -0.313 2.445868574662076 0.27700320945248663 18.926218497271453 1 1 1
4690 335 14 0.09 1.0213381331703566 4.207924846226028 18.32486824782378 2 1 -2
7005 501 5 -0.617 4.48543427879864 0.8867532228581093 20.07408227856306 1 1 1
3183 228 5 -0.617 6.980716681110914 8.901373042670096 17.406084076165172 3 0 -1
2501 179 9 0.09 11.172069878353135 4.479593255438139 18.780969600829714 1 1 1
3184 228 6 -0.313 4.65997930277113 8.28452302024718 17.15278263850671 3 0 -1
974 70 8 0.09 0.41852706396001615 3.314471371593616 20.89818922954087 0 2 -1
7002 501 2 0.079 5.694101938083034 1.5441126092037756 17.95325631724408 1 1 1
255 19 3 -0.493 2.3085370439334185 10.578978279648204 19.87892402903455 1 -2 -3
3188 228 10 0.09 7.072665253520868 11.162021375769758 18.52315651769111 3 0 -1
7004 501 4 0.898 3.8457729566687364 0.7573229916027935 19.045885323989992 1 1 1
3182 228 4 0.898 5.796035940276302 9.242451245411573 17.459474594888484 3 0 -1
3535 253 7 0.09 8.47476323991781 1.70170229588215 22.030068198543194 1 2 -1
970 70 4 0.898 3.0623917790242867 3.5360210684230515 21.616428231819775 0 2 -1
3540 253 12 0.09 9.4342087460695 3.7146976248651065 17.15940717641896 1 2 -1
7012 501 12 0.09 2.074813964056501 0.5329832634477221 17.882323401649636 1 1 1
976 70 10 0.09 1.095967332212552 6.241973078217358 21.72145866490033 0 2 -1
6446 461 6 -0.313 5.248984279446233 7.245724894554061 22.35398652831505 2 0 2
2800 200 14 0.09 8.844976570369038 8.21966061669237 21.569099202557783 -1 2 2
978 70 12 0.09 5.01287841881878 3.1046897735092465 22.425599378419882 0 2 -1
6453 461 13 0.09 4.404336353334869 7.7205129387257845 21.842953793722238 2 0 2
3404 244 2 0.079 0.35685417319587054 11.272949961570037 22.24326765372185 1 1 1
4689 335 13 0.09 2.4965059631929623 3.0442517241076454 18.23822272341479 2 1 -2
3413 244 11 0.09 0.641632258339796 10.720375400116938 21.395612958076462 1 1 1
2791 200 5 -0.617 11.250092364170602 8.776079945217962 22.18796465198092 -1 2 2
6452 461 12 0.09 4.778386198330831 6.686908233327956 23.250677970938504 2 0 2
1699 122 5 -0.617 4.282066427881051 9.088935090607478 27.097772371491086 0 -1 -1
1114 80 8 0.09 7.697578098021034 9.875046267311843 26.77950515136675 -1 -1 0
1115 80 9 0.09 7.831958791475916 9.302967419908333 25.108576236099104 -1 -1 0
1116 80 10 0.09 7.207339005696747 7.5172192591794875 26.956787046574686 -1 -1 0
343 25 7 0.09 4.340818445921811 4.2228781241724676 27.414677925685975 -2 -1 1
1697 122 3 -0.493 2.9822293769437973 10.093117935297604 25.52363332599709 0 -1 -1
6709 480 3 -0.493 11.172199081780601 2.632517931789343 25.960749050179746 1 -1 -1
980 70 14 0.09 3.5716400579001344 3.3320148631995545 23.55246570284807 0 2 -1
574 41 14 0.09 0.5016978371629024 3.05757489937744 24.840062469213287 0 0 0
1119 80 13 0.09 7.876719339654347 5.349522930442785 23.913384394722556 -1 -1 0
2799 200 13 0.09 8.79829693500339 8.791236551126472 23.300828721981354 -1 2 2
6716 480 10 0.09 9.653142780819422 1.7700699851093542 26.83011873872299 1 -1 -1
260 19 8 0.09 3.9101835871265163 10.583342856830157 22.602578127501488 1 -2 -3
1706 122 12 0.09 3.311544236168454 7.961912323664278 24.424733275966357 0 -1 -1
1698 122 4 0.898 3.4786641173693944 9.063271994969634 26.17427349636549 0 -1 -1
979 70 13 0.09 3.8328105671584822 1.7560571192378904 22.51236002988812 0 2 -1
972 70 6 -0.313 3.8875166580059632 2.9112485374660912 22.56869998949243 0 2 -1
3412 244 10 0.09 1.1652280273716267 11.305154225618628 22.998824511984164 1 1 1
1108 80 2 0.079 8.164376393419618 7.729201229665037 26.55868078239276 -1 -1 0
1118 80 12 0.09 9.6183645291962 4.865420628877352 24.275569443918137 -1 -1 0
1113 80 7 0.09 9.37872123334132 9.490305689474484 26.181648103570648 -1 -1 0
6708 480 2 0.079 10.731206996584815 1.8776329555151066 27.063769517589904 1 -1 -1
340 25 4 0.898 6.160440197123919 0.8439752683149869 25.820151465799192 -2 -1 1
6717 480 11 0.09 11.21010163091893 0.8561497475765736 27.116748370704514 1 -1 -1
341 25 5 -0.617 7.010637123490045 1.6322633125696668 25.39151628353696 -2 -1 1
1111 80 5 -0.617 8.613168722021696 5.126065672285557 27.086919827210362 -1 -1 0
3833 274 11 0.09 0.3763149424868265 9.894269629242295 26.23685855763394 -1 -1 -3
1120 80 14 0.09 8.227036330612695 3.825533077382006 24.821065675629384 -1 -1 0
1110 80 4 0.898 8.493834783279338 5.570860089633651 25.92063216224692 -1 -1 0
1700 122 6 -0.313 3.0002050948700845 7.806621059289081 25.491848779571058 0 -1 -1
1117 80 11 0.09 8.820013338408938 7.609614975253061 27.441996460119967 -1 -1 0
1109 80 3 -0.493 8.460257853892887 6.807655348066945 25.547441732538505 -1 -1 0
1112 80 6 -0.313 8.553368554904509 4.853689949256927 24.63494811351628 -1 -1 0
339 25 3 -0.493 5.29100404051552 1.0781169906493895 26.739137794150555 -2 -1 1
344 25 8 0.09 3.3702949573185776 2.747714659214051 26.952238341513507 -2 -1 1
1708 122 14 0.09 3.594261920752342 6.922483281462052 25.86766080135503 0 -1 -1
1707 122 13 0.09 1.945267261501173 7.55398529121851 25.55228391897815 0 -1 -1
338 25 2 0.079 5.399766239481207 2.3815818272753724 27.394267896767417 -2 -1 1
1107 80 1 -0.274 8.30506233114136 9.209814002182059 26.130813583958595 -1 -1 0
573 41 13 0.09 0.8031905257905491 1.3964888024804003 25.579450968899955 0 0 0
347 25 11 0.09 6.3923300795858005 2.9008883023519276 27.299624158775117 -2 -1 1
345 25 9 0.09 4.467803409344358 3.4012198138607337 25.752726102374922 -2 -1 1
6454 461 14 0.09 5.908661492529183 8.051496776704333 22.734737470783138 2 0 2
337 25 1 -0.274 4.342027443665366 3.2406454122920008 26.841793948351615 -2 -1 1
1696 122 2 0.079 3.5661781444677576 11.320903677313444 26.112179985490663 0 -1 -1
722 52 8 0.09 11.312626877373416 7.707033092394945 27.178229859944572 1 0 1
5970 427 6 -0.313 3.9830070290467825 2.392183033030605 31.577735681016065 2 3 -1
2011 144 9 0.09 1.8262740333292726 10.09066110579835 31.374545249380663 -2 -2 -1
3329 238 11 0.09 8.683100887231017 4.9269336603976 30.15471812239199 2 1 -1
2644 189 12 0.09 5.0893035251588445 10.216965667408797 31.07851564577242 -1 -2 -2
2633 189 1 -0.274 9.434928175638058 9.170148392681208 30.60378463245088 -1 -2 -2
2003 144 1 -0.274 1.834129556244209 9.136433795589157 31.97218091246221 -2 -2 -1
2643 189 11 0.09 8.263944075377074 7.329882354684717 30.621015894727883 -1 -2 -2
2639 189 7 0.09 10.501362018917805 8.778809793120894 30.568058804072102 -1 -2 -2
2640 189 8 0.09 9.37825142234012 10.054494459556372 31.312178254905366 -1 -2 -2
3328 238 10 0.09 7.964251382247845 4.807780820983884 31.850167843033507 2 1 -1
3319 238 1 -0.274 8.151514403478268 2.984204174228514 30.799223702973872 2 1 -1
5975 427 11 0.09 3.3433558275490878 5.745397441513057 29.19742001642049 2 3 -1
2010 144 8 0.09 2.5261801458850996 8.331990574147206 31.55759077063102 -2 -2 -1
2636 189 4 0.898 6.328846546491616 8.827850780850026 30.101740073919487 -1 -2 -2
2634 189 2 0.079 8.328292511002553 8.286060291663004 31.182388923853367 -1 -2 -2
3322 238 4 0.898 10.348377195376543 4.470308066665683 32.77188660787963 2 1 -1
1660 119 8 0.09 7.764009378171202 10.63185680992423 33.0430928957795 0 2 1
5977 427 13 0.09 4.875483580081176 1.912375132446262 31.350025465385407 2 3 -1
2635 189 3 -0.493 7.134007905433877 9.179072759787054 31.081886228251722 -1 -2 -2
2645 189 13 0.09 4.158571533672474 9.465954619487851 29.69140662118976 -1 -2 -2
2009 144 7 0.09 0.8478282051822223 8.752455068304487 32.16145240736525 -2 -2 -1
3320 238 2 0.079 8.677854773297485 4.344250682548288 31.13131873890743 2 1 -1
2646 189 14 0.09 5.530822909363708 10.61531599820243 29.342758158076357 -1 -2 -2
3327 238 9 0.09 7.353536742163244 3.1086868409573043 30.074852770462225 2 1 -1
2637 189 5 -0.617 6.447407592141396 7.854519673807499 29.39795170062706 -1 -2 -2
5967 427 3 -0.493 2.877155841466186 4.434610163928238 30.90903815075917 2 3 -1
5966 427 2 0.079 3.002922363469844 5.744979096906178 30.265721046818797 2 3 -1
3556 254 14 0.09 0.8297061291518978 0.8936273541366432 31.15313532715639 0 1 -2
5968 427 4 0.898 4.051985276812305 3.871342290892008 31.1247528396396 2 3 -1
3325 238 7 0.09 7.752416222377729 2.4383450857906745 31.68808886941222 2 1 -1
2638 189 6 -0.313 5.171115077654106 9.807126955300598 30.03808118904606 -1 -2 -2
5965 427 1 -0.274 1.5371858283216298 6.274232978014867 30.08999209983471 2 3 -1
5976 427 12 0.09 3.826722125896048 2.3238477941715447 32.65785074662274 2 3 -1
5969 427 5 -0.617 5.09787059680362 4.430635442306428 30.915147246012825 2 3 -1
3321 238 3 -0.493 10.050539043037947 4.24444537146311 31.540292914489246 2 1 -1
6707 480 1 -0.274 11.009872575835427 2.7036526687698195 28.265315044740415 1 -1 -1
5978 427 14 0.09 3.167352291958704 1.8976028760274357 30.94625078924412 2 3 -1
3823 274 1 -0.274 0.48659398091268746 11.09948675807066 28.195593978815868 -1 -1 -3
346 25 10 0.09 5.265283696178729 2.3676950111508996 28.53262194026266 -2 -1 1
3326 238 8 0.09 8.894350853692163 2.343081586889291 30.300671845618965 2 1 -1
2641 189 9 0.09 9.107627955299105 9.636444752384515 29.58995860252001 -1 -2 -2
6714 480 8 0.09 10.429164021305908 3.692563379959155 28.217835269377286 1 -1 -1
5974 427 10 0.09 3.614796585608396 6.477565262761924 30.90729530671247 2 3 -1
2642 189 10 0.09 8.497783798697688 8.037085813759639 32.260184219512055 -1 -2 -2
6713 480 7 0.09 10.743281632329483 2.172678552971851 29.14949038642216 1 -1 -1
3323 238 5 -0.617 9.699175095945128 5.132554200428372 33.57585216745355 2 1 -1
3829 274 7 0.09 1.0926808180351002 10.447713685574426 28.809637418288894 -1 -1 -3
2004 144 2 0.079 2.2839562408987337 9.509894644405653 33.401657511667246 -2 -2 -1
2013 144 11 0.09 3.305385349633264 10.00218748939279 33.19679684045694 -2 -2 -1
5973 427 9 0.09 1.0748078694127527 5.555589969005636 29.39161156652171 2 3 -1
5971 427 7 0.09 1.443675439528543 7.294254940307379 29.63359588979459 2 3 -1
5972 427 8 0.09 1.072590951764727 6.2961614614012635 31.157120671293487 2 3 -1
3555 254 13 0.09 0.3132796534529732 2.067344554003963 29.887822117174643 0 1 -2