LAMMPS data file via write_data, version 29 Aug 2024, timestep = 1000000, units = real

6144 atoms
12 atom types
5632 bonds
11 bond types
9216 angles
18 angle types
8192 dihedrals
16 dihedral types
3072 impropers
6 improper types

2.4003669603030318 42.59963303968526 xlo xhi
2.4003669603030318 42.59963303968526 ylo yhi
2.4003669603030318 42.59963303968526 zlo zhi

Masses

1 12.011
2 14.007
3 12.011
4 12.011
5 15.999
6 1.008
7 1.008
8 1.008
9 1.008
10 1.008
11 1.008
12 1.008

Pair Coeffs # lj/charmmfsw/coul/long

1 0.078 3.65268 0.01 3.38542
2 0.2 3.29632 0.0001 3.29632
3 0.078 3.65268 0.01 3.38542
4 0.11 3.56359 0.11 3.56359
5 0.12 3.02906 0.12 2.49452
6 0.024001 2.38761 0.024001 2.38761
7 0.024001 2.38761 0.024001 2.38761
8 0.024001 2.38761 0.024001 2.38761
9 0.024001 2.38761 0.024001 2.38761
10 0.024001 2.38761 0.024001 2.38761
11 0.024001 2.38761 0.024001 2.38761
12 0.045999 1.60362 0.045999 1.60362

Bond Coeffs # harmonic

1 315 1.434
2 315 1.434
3 430 1.35
4 620 1.23
5 322 1.111
6 322 1.111
7 322 1.111
8 322 1.111
9 322 1.111
10 322 1.111
11 317.13 1.1

Angle Coeffs # charmm

1 45 121 0 0
2 42 119.5 0 0
3 80 124 0 0
4 50 105 0 0
5 50 105 0 0
6 50 105 0 0
7 50 105 0 0
8 50 105 0 0
9 50 105 0 0
10 43 115 0 0
11 44 122 0 0
12 35.5 108.4 5.4 1.802
13 35.5 108.4 5.4 1.802
14 35.5 108.4 5.4 1.802
15 42 119.5 0 0
16 35.5 108.4 5.4 1.802
17 35.5 108.4 5.4 1.802
18 35.5 108.4 5.4 1.802

Dihedral Coeffs # charmmfsw

1 2.6 2 180 1
2 0.42 3 0 1
3 0.42 3 0 1
4 2.6 2 180 1
5 0 3 0 1
6 0.42 3 0 1
7 0.42 3 0 1
8 2.6 2 180 1
9 0 3 0 1
10 0 3 0 1
11 0.42 3 0 1
12 0 3 0 1
13 2.6 2 180 1
14 0.42 3 0 1
15 0 3 0 1
16 0 3 0 1

Improper Coeffs # harmonic

1 0 0
2 0 0
3 0 0
4 0 0
5 0 0
6 50 0

Atoms # full

916 77 4 0.423 10.088915216567576 6.169226725578301 3.955642738122976 0 -1 0
1458 122 6 0.09 10.507366149106284 4.364090042755359 7.214327993309909 0 0 -1
1368 114 12 0.079 5.701017192353517 4.229212847211139 5.829605722959309 -1 1 -1
1365 114 9 0.09 7.6504712653019995 7.324022860842753 5.610437607940001 -1 1 -1
1359 114 3 -0.093 6.75805523575727 7.432321459044339 4.94139579126267 -1 1 -1
5715 477 3 -0.093 2.4982944366937048 6.746780693582569 6.6409891023446885 1 0 1
1357 114 1 -0.093 5.767254272874434 5.561399647760763 3.6229976041218452 -1 1 -1
1401 117 9 0.09 11.348044063528365 11.085698515812721 4.277309070391432 1 0 0
922 77 10 0.09 11.601099102675573 4.307991020896622 4.9069163475882664 0 -1 0
92 8 8 0.09 3.017572475731336 12.10999404020824 4.340280434181199 1 0 1
1464 122 12 0.079 8.495335463376195 6.734056137015465 7.160419819363774 0 0 -1
1362 114 6 0.09 5.250405478519591 6.417744397031075 3.026399504223974 -1 1 -1
1396 117 4 0.423 8.329500941275136 10.286479601010456 3.098245860242815 1 0 0
919 77 7 0.09 10.964380424334571 8.558571093011935 4.703835211699436 0 -1 0
5722 477 10 0.09 3.344332877880366 6.499693207509674 5.932427244406212 1 0 1
1397 117 5 -0.523 7.64035165301211 10.896568538914828 3.8606001742341545 1 0 0
3265 273 1 -0.093 3.1965235995984074 3.156342562627841 6.594417560267581 0 1 -3
1459 122 7 0.09 8.751903612820552 4.772576693768299 7.072528727378002 0 0 -1
1394 117 2 -0.333 9.690045630725383 10.465679096922845 3.1261114882754644 1 0 0
1358 114 2 -0.333 6.111571286161475 6.138164859800172 4.929040360214918 -1 1 -1
5863 489 7 0.09 11.392546917613332 2.6011662250543637 3.7515985466212496 0 0 2
1403 117 11 0.09 10.498348239278744 12.371518369925095 3.2053585129477065 1 0 0
6105 509 9 0.09 8.714400329141265 2.6444220329972334 2.9411169835641653 2 2 1
923 77 11 0.09 12.145956039982833 5.499548594693618 6.153894825087944 0 -1 0
1363 114 7 0.09 5.065162762248594 4.695693146586885 3.811876404534445 -1 1 -1
924 77 12 0.079 9.481926428054228 7.0190881887399454 3.6166289831282343 0 -1 0
1364 114 8 0.09 6.767131985207585 5.295305986045719 3.2119763213745034 -1 1 -1
5718 477 6 0.09 2.798384811938999 9.213340553046418 5.354642584229552 1 0 1
913 77 1 -0.093 11.687989073346897 7.703872423000719 5.070237620325494 0 -1 0
1360 114 4 0.423 6.042562256656443 5.318752556126346 6.035491674325753 -1 1 -1
1361 114 5 -0.523 6.447869570039828 5.639862848673946 7.1549026373808635 -1 1 -1
1402 117 10 0.09 9.820715098277311 11.793386449172788 4.755459164823554 1 0 0
96 8 12 0.079 5.844428336652381 11.999378769055502 5.539618746555588 1 0 1
918 77 6 0.09 11.553049018245153 7.778774461877309 6.17655872528279 0 -1 0
1366 114 10 0.09 6.0526071521904585 8.187690715752364 5.262937220117366 -1 1 -1
88 8 4 0.423 5.184252154131187 12.11543383349878 6.345175447866594 1 0 1
4662 389 6 0.09 2.631966768555003 7.565303077435745 3.720288990463448 0 -1 1
1367 114 11 0.09 7.219445723756549 7.661270674279618 3.978259835941602 -1 1 -1
914 77 2 -0.333 11.222129440499886 6.427987417996005 4.628015626562287 0 -1 0
3271 273 7 0.09 3.720662257548459 4.0974533817999355 6.511148378854656 0 1 -3
915 77 3 -0.093 12.157168598643693 5.30107154368627 5.0432756127976965 0 -1 0
1395 117 3 -0.093 10.388003143502907 11.476151727002494 3.894713527178502 1 0 0
4606 384 10 0.09 8.5482841856889 10.964559417969735 7.180361189595014 0 1 0
917 77 5 -0.523 9.767983306096003 5.026066596504551 3.6391095020594073 0 -1 0
4599 384 3 -0.093 8.698985771327258 12.041953591584004 7.412251957256272 0 1 0
6106 509 10 0.09 7.120900573532416 3.2493937341293146 2.4727149345641166 2 2 1
4615 385 7 0.09 4.866474211186771 9.525324865481341 8.236215904894106 0 1 -1
4609 385 1 -0.093 5.59620344792712 8.878832738971465 8.753752518378642 0 1 -1
4616 385 8 0.09 5.1960770952387865 7.909355016420451 8.926137700828559 0 1 -1
4597 384 1 -0.093 11.12551990256036 11.513111044893689 7.99478067104969 0 1 0
1674 140 6 0.09 2.8261982212638768 11.417434247305023 12.130502570034396 1 -1 -1
1455 122 3 -0.093 11.308019581550843 6.204638551604953 8.994928131643292 0 0 -1
3268 273 4 0.423 3.678656686177084 3.7821667671595653 8.917874613945447 0 1 -3
5852 488 8 0.09 7.340096553031185 6.690534694385656 10.590873079388542 0 1 0
3266 273 2 -0.333 3.016759695767 2.9809253053222866 8.062794747487445 0 1 -3
4610 385 2 -0.333 5.866541936205532 9.410706591326019 10.078772769779068 0 1 -1
4598 384 2 -0.333 10.158982054793345 12.318337248267133 7.430966426948479 0 1 0
5850 488 6 0.09 7.286165511674429 4.806310010342357 10.321485964942859 0 1 0
2560 214 4 0.423 10.94006749671715 9.885223074490828 11.749549704848661 2 0 0
1463 122 11 0.09 12.154614392587348 5.531667111558041 8.603627697895345 0 0 -1
2564 214 8 0.09 9.422031836829673 7.7727889712841725 11.815389812038468 2 0 0
4614 385 6 0.09 6.519612890109107 8.791646731809497 8.151707368261624 0 1 -1
4602 384 6 0.09 12.118614840820563 11.63136187154602 7.453548481620873 0 1 0
1454 122 2 -0.333 10.12264494433844 6.030159895330649 8.165521744281854 0 0 -1
2897 242 5 -0.523 9.99382267640285 3.4110778898459335 11.350559518748103 -1 2 0
4620 385 12 0.079 7.939107265831035 9.394029647357549 9.63430214566526 0 1 -1
4612 385 4 0.423 7.177071671349842 9.674517150334065 10.352434481814882 0 1 -1
4611 385 3 -0.093 4.684094008080719 9.684223417217058 10.945351103043015 0 1 -1
2568 214 12 0.079 9.992681896935718 9.739871578881665 11.150444491351362 2 0 0
4604 384 8 0.09 11.169870952698387 11.610521667487545 9.110105220448492 0 1 0
3269 273 5 -0.523 3.626272804285792 3.560783406573371 10.113172618947546 0 1 -3
1462 122 10 0.09 11.633402594837618 7.359754890122724 8.998871422106646 0 0 -1
4613 385 5 -0.523 7.528636917183958 10.051973993829609 11.473942538261296 0 1 -1
1461 122 9 0.09 11.079523501565347 5.838726538252693 10.037591651195484 0 0 -1
4619 385 11 0.09 4.163498348637752 10.460440637949304 10.323021729084461 0 1 -1
1457 122 5 -0.523 9.31918182535696 8.153442083486166 8.357011807101214 0 0 -1
2561 214 5 -0.523 11.90630322270409 10.607471947101004 11.448299911497232 2 0 0
4618 385 10 0.09 4.076138918552014 8.803561635602367 11.137370954377584 0 1 -1
3276 273 12 0.079 4.205839248161689 4.658952009811179 8.521031626224351 0 1 -3
5721 477 9 0.09 3.0862496374292663 7.133535532726721 7.509390244062779 1 0 1
5855 488 11 0.09 5.259817555226779 5.961260760263171 12.224746965486824 0 1 0
1456 122 4 0.423 9.289552706143773 7.031596492188749 7.857988027294545 0 0 -1
1460 122 8 0.09 9.553533398848842 4.154255300775979 8.738207586966652 0 0 -1
1453 122 1 -0.093 9.6535749971781 4.6932149890868455 7.785491754971144 0 0 -1
5851 488 7 0.09 8.82669285600178 5.511819888632266 10.878076163036706 0 1 0
2896 242 4 0.423 10.851320413483123 2.511370816730887 11.344435625142303 -1 2 0
2904 242 12 0.079 11.70906632195753 2.622918080635991 10.697070214388939 -1 2 0
4605 384 9 0.09 8.256103003654559 12.202817654163855 8.489600422943791 0 1 0
5845 488 1 -0.093 7.712126745879085 5.654430767068382 10.914535281189874 0 1 0
4617 385 9 0.09 5.088566346021775 10.131197183786066 11.923552670261328 0 1 -1
5856 488 12 0.079 8.208929348486949 3.796263974908402 12.36412925274183 0 1 0
5846 488 2 -0.333 7.221607082216701 5.569636502019367 12.288984801006336 0 1 0
89 8 5 -0.523 5.411729104130436 11.778170850194131 7.5156820388312475 1 0 1
4603 384 7 0.09 10.794416340703728 10.445871735827227 7.785485532463675 0 1 0
5853 488 9 0.09 6.249207558500165 7.3885618531963875 12.364375241284865 0 1 0
334 28 10 0.09 9.279191437403764 2.9889242553339646 15.551390932716092 0 0 -2
2567 214 11 0.09 12.36600759024802 7.716732348337954 13.662191158329216 2 0 0
5240 437 8 0.09 4.110568514163241 2.4673232678125188 14.236555528547944 1 2 -1
4435 370 7 0.09 3.2329995762183334 5.854313217218211 13.468878462046378 0 0 1
5848 488 4 0.423 7.611379735872783 4.446932126326894 12.981578820890194 0 1 0
2559 214 3 -0.093 11.990784886539588 8.757449291470316 13.731022915774572 2 0 0
3374 282 2 -0.333 5.313837502872714 11.70090292184627 14.815824546142325 0 0 0
5963 497 11 0.09 10.693572437828557 12.039000634703337 15.287030110773301 1 0 -2
5847 488 3 -0.093 6.1068844363574275 6.386447022197565 12.71801594766361 0 1 0
839 70 11 0.09 5.111765307235254 4.302214545482036 16.070469410879497 1 1 0
5955 497 3 -0.093 9.87892585270116 11.834220360942233 15.956945577569753 1 0 -2
3300 275 12 0.079 8.008167172690243 6.001899180546131 16.086437642693085 0 -1 0
5239 437 7 0.09 4.7455353104956135 3.232809879561777 12.76254194253748 1 2 -1
5849 488 5 -0.523 7.134264111062619 4.121374959892867 14.079697897601445 0 1 0
837 70 9 0.09 4.42200215118521 5.657928175522455 16.924849196691348 1 1 0
4440 370 12 0.079 3.2588840887993014 7.773255289356435 15.729837647907193 0 0 1
327 28 3 -0.093 9.870489464878073 2.822636575834031 16.47459049804138 0 0 -2
2557 214 1 -0.093 9.781273354702511 8.049507249157196 12.795043336134876 2 0 0
1188 99 12 0.079 10.999388529404658 7.079334402569641 16.92337668944788 0 -1 0
333 28 9 0.09 10.04577013504484 3.763339421213474 17.078916356727476 0 0 -2
2565 214 9 0.09 11.59983884090662 8.85047002515395 14.798589853999978 2 0 0
1180 99 4 0.423 11.975815434258985 6.601954171946945 17.058790448250022 0 -1 0
3382 282 10 0.09 5.854834499793949 10.192521362628943 16.138486945650207 0 0 0
1181 99 5 -0.523 12.127036350556883 5.370020795160526 17.159711235754006 0 -1 0
3376 282 4 0.423 4.0537566000486525 11.745514449176524 15.172827954915824 0 0 0
3375 282 3 -0.093 6.334711263068943 11.0625706016184 15.675721324113002 0 0 0
2562 214 6 0.09 9.016635088450304 8.544809760364055 13.429430801482209 2 0 0
3293 275 5 -0.523 8.650803257116324 7.916783690541443 16.6124627229136 0 -1 0
5962 497 10 0.09 9.553604046753499 10.785661072364974 15.913092085216048 1 0 -2
3383 282 11 0.09 6.80860857874983 11.699952127915651 16.509111183463773 0 0 0
3381 282 9 0.09 7.157106391066833 10.708289293939425 15.010117610744405 0 0 0
5854 488 10 0.09 6.085419770959868 6.313758911774961 13.7715247807683 0 1 0
3292 275 4 0.423 8.259323865010888 6.824090229265257 16.893410750815335 0 -1 0
3377 282 5 -0.523 3.522530528731667 11.036835405950907 16.035386428240255 0 0 0
831 70 3 -0.093 4.375133243053199 4.54595716000684 16.815208966475332 1 1 0
2558 214 2 -0.333 10.889441161493195 8.97908940070735 12.79504877400453 2 0 0
838 70 10 0.09 3.3055203000529185 4.3568799964332 16.523600602324144 1 1 0
4429 370 1 -0.093 2.740223497058971 6.842795423637184 13.408974110557187 0 0 1
2563 214 7 0.09 10.272725917936778 7.146193671498331 13.213285304647929 2 0 0
1183 99 7 0.09 11.585492674298042 9.168167663608672 17.190498480704143 0 -1 0
5954 497 2 -0.333 10.151636215615367 12.232424324036014 17.369519416945074 1 0 -2
4436 370 8 0.09 3.457030073717318 7.7297517669182625 13.40843573464689 0 0 1
5961 497 9 0.09 8.960796003888678 12.40516883601011 15.692657149657373 1 0 -2
3379 282 7 0.09 6.536667842563319 12.440852435729612 13.318247965309897 0 0 0
3297 275 9 0.09 8.974965927521335 8.16462584030274 18.93245702945307 0 -1 0
1804 151 4 0.423 4.613994323889472 11.531049415727878 19.01212793356874 2 0 0
1807 151 7 0.09 3.229489127710731 9.363365228127421 18.89467315495759 2 0 0
3299 275 11 0.09 7.507604945581541 7.463826838461347 19.725882989664676 0 -1 0
4979 415 11 0.09 12.107089362224844 6.410661085419151 20.21463370607694 0 0 1
1803 151 3 -0.093 6.144322509915219 10.238313511022884 20.380018964004996 2 0 0
840 70 12 0.079 4.353655667613943 3.5771417059426684 20.106594296993073 1 1 0
4977 415 9 0.09 10.862478225054105 5.34564783590017 19.60772868445021 0 0 1
5959 497 7 0.09 8.843427378740262 10.772160556278187 18.314011073405077 1 0 -2
4971 415 3 -0.093 11.745768131808283 5.382470305555529 20.293065560378906 0 0 1
715 60 7 0.09 11.150716974707747 10.511087551801875 21.430046133876242 0 1 -1
3294 275 6 0.09 6.889739763074937 5.3550798204475285 19.305195783663518 0 -1 0
1802 151 2 -0.333 4.88718861623304 10.383684662960842 19.63077736125131 2 0 0
829 70 1 -0.093 4.846047712394324 2.4842011392750356 17.794726007672587 1 1 0
1809 151 9 0.09 6.679833724542095 9.399336454834659 19.899912662021773 2 0 0
5958 497 6 0.09 9.529174659049692 11.999165200481974 19.3765555158983 1 0 -2
3684 307 12 0.079 3.3378272038983603 12.121838595367665 21.09932892942817 0 2 0
5953 497 1 -0.093 9.142270376596414 11.86005223918293 18.351385148813637 1 0 -2
5956 497 4 0.423 11.430543920107416 12.448211168808601 17.806396015256055 1 0 -2
4973 415 5 -0.523 11.123990340888318 7.318351174701479 22.165285157013237 0 0 1
5877 490 9 0.09 4.900196325367521 7.49721364691248 21.821813921460862 0 1 -1
3290 275 2 -0.333 8.218230347654444 6.351699710655476 18.16883399574938 0 -1 0
1806 151 6 0.09 4.6494698815547775 8.219582790943107 19.36002968976323 2 0 0
716 60 8 0.09 12.362051682334952 9.363229958168917 22.330554153695484 0 1 -1
833 70 5 -0.523 4.009076225145273 5.513350039156851 19.42854198316523 1 1 0
3291 275 3 -0.093 8.440472786159845 7.226983274993196 19.27077219895914 0 -1 0
3289 275 1 -0.093 7.819457631421781 5.0845275168128845 18.732231624338645 0 -1 0
832 70 4 0.423 4.417276639254866 4.3596374186450255 19.293912190828475 1 1 0
4974 415 6 0.09 11.67600481068269 3.1036172755241997 21.322806841299812 0 0 1
830 70 2 -0.333 4.710656297603073 3.898311803302584 18.062254647719655 1 1 0
1801 151 1 -0.093 4.027486468844138 9.191595207916148 19.5958247452747 2 0 0
4970 415 2 -0.333 11.409330696615237 5.09193671295834 21.706478281143394 0 0 1
3298 275 10 0.09 9.09281701199826 6.69751262785095 20.053140314768747 0 -1 0
3295 275 7 0.09 8.730566729203327 4.6866756532003 19.298219127899323 0 -1 0
1811 151 11 0.09 6.7447587599759755 11.168508973153045 20.362496114044777 2 0 0
3296 275 8 0.09 7.56903839792116 4.4044473053617095 17.930194697454816 0 -1 0
1810 151 10 0.09 5.746445119637036 10.091705062641584 21.37825370785979 2 0 0
1808 151 8 0.09 3.4955551346748095 9.05613995275223 20.581692736074118 2 0 0
1812 151 12 0.079 3.6954656433052615 11.49226079595388 18.386364207846945 2 0 0
4969 415 1 -0.093 11.134678767722741 3.7353976604959946 22.020574930798723 0 0 1
4975 415 7 0.09 10.054214399076084 3.599652483881142 21.860009307304626 0 0 1
2735 228 11 0.09 2.8310070304548227 4.510467637424032 21.612457807003196 1 0 -1
5873 490 5 -0.523 6.307670104025334 4.771875990741783 21.751085416789113 0 1 -1
5875 490 7 0.09 8.684505184021994 7.704725910416797 22.257285469033285 0 1 -1
709 60 1 -0.093 12.227306696783284 10.1386393261167 21.57712849035162 0 1 -1
5872 490 4 0.423 7.090597396046268 5.637590735122277 22.057153249066054 0 1 -1
5880 490 12 0.079 8.12391084065208 5.442985696282511 22.02019666826549 0 1 -1
5870 490 2 -0.333 6.748006713431022 6.830308747112054 22.486340220187895 0 1 -1
3676 307 4 0.423 3.0279249415325555 12.321752478009431 22.133668948966125 0 2 0
5874 490 6 0.09 7.241086392744214 8.790246420290973 22.37782037169816 0 1 -1
1069 90 1 -0.093 11.366008398780853 7.888599312165893 25.766055613484372 1 0 1
6136 512 4 0.423 4.899957637714632 9.813794319482405 25.322820475983434 2 -1 0
6134 512 2 -0.333 3.9627751263034963 8.87224157738817 25.583196664903507 2 -1 0
6143 512 11 0.09 5.562334026369222 7.447920542705276 25.573078310577735 2 -1 0
147 13 3 -0.093 4.914280466436365 4.044604159481811 26.911228963636475 1 0 0
2398 200 10 0.09 7.482375524466459 10.760671971176562 23.411261215485087 1 0 1
2397 200 9 0.09 8.99701361065522 11.303657213629345 22.56425438341868 1 0 1
1076 90 8 0.09 12.421076749663037 8.318238636238917 25.847038391855328 1 0 1
154 13 10 0.09 5.1552039793477284 3.9677786137423237 25.831316784198112 1 0 0
4972 415 4 0.423 11.095771569930701 6.119032818555495 22.56551191858587 0 0 1
1074 90 6 0.09 10.692295836599975 8.59250030819599 25.269768737088004 1 0 1
5879 490 11 0.09 4.895805149714825 6.2323033061244955 23.088717030782206 0 1 -1
1535 128 11 0.09 10.742068595616177 11.453626684043616 26.62078864551692 1 0 1
1075 90 7 0.09 11.392783887817235 7.019795501728158 25.13898204244098 1 0 1
6135 512 3 -0.093 4.501721895689974 7.570996765712191 25.927558590975583 2 -1 0
5876 490 8 0.09 7.934398589448677 8.001302733130863 23.843891314806314 0 1 -1
5878 490 10 0.09 5.467669664916519 7.953029263663815 23.48902435343379 0 1 -1
3279 274 3 -0.093 11.208029473882409 4.075552511309032 26.977927679948607 1 -1 -1
3281 274 5 -0.523 9.5027187010217 4.644357448469829 24.98016158957795 1 -1 -1
3288 274 12 0.079 8.736512026332406 2.815006208730538 24.90994736928311 1 -1 -1
1534 128 10 0.09 12.333017056931368 10.862091878368313 27.14687430869485 1 0 1
3287 274 11 0.09 11.851428995645387 4.481497115867306 26.23961763174369 1 -1 -1
6133 512 1 -0.093 2.537411906095066 8.990111845085535 25.901818690205403 2 -1 0
2391 200 3 -0.093 8.295092808826563 11.509420046282717 23.363395981583462 1 0 1
4980 415 12 0.079 10.74160079912763 5.817337765934649 23.61858826794341 0 0 1
153 13 9 0.09 4.050057628341239 3.478575907737408 27.223339066106764 1 0 0
2399 200 11 0.09 8.881546718992166 11.473952134849368 24.315462502410146 1 0 1
1078 90 10 0.09 8.632852732813554 8.272286460494666 27.009753894957704 1 0 1
1077 90 9 0.09 9.00871702536222 6.726787801435276 26.171438547974944 1 0 1
3280 274 4 0.423 9.465474971219788 3.4911570479962464 25.40922795169823 1 -1 -1
5869 490 1 -0.093 7.717820910680997 7.883931992330077 22.800531025369093 0 1 -1
6137 512 5 -0.523 6.0957492747974005 9.577867967301879 25.228059544937455 2 -1 0
6144 512 12 0.079 4.575891687796294 10.85689623221644 25.229697596055505 2 -1 0
155 13 11 0.09 4.8325758592962424 5.13761204838654 27.17336692573495 1 0 0
3677 307 5 -0.523 2.7109665402126533 11.391139120474978 22.919027304342237 0 2 0
5871 490 3 -0.093 5.376277859256241 7.1603505716470055 22.75821800682825 0 1 -1
6142 512 10 0.09 4.5399166168308644 7.357448797243766 27.00773642267089 2 -1 0
3278 274 2 -0.333 10.338247177297134 3.110438035699811 26.40605668415853 1 -1 -1
6141 512 9 0.09 3.952040254358784 6.782401563568065 25.415851019484407 2 -1 0
151 13 7 0.09 7.218212192159352 5.066813746716081 27.142661792077977 1 0 0
4976 415 8 0.09 11.409601507334951 3.4916060863298033 23.05744743849134 0 0 1
1070 90 2 -0.333 10.682605311864656 7.590273521996712 27.06710279799049 1 0 1
2064 172 12 0.079 2.5239015187254794 4.7050206875284895 26.698239061744268 0 0 0
1071 90 3 -0.093 9.219155629474702 7.321436478533311 27.086439301196894 1 0 1
1527 128 3 -0.093 11.455118766515506 11.52894312466299 27.37867140167275 1 0 1
2733 228 9 0.09 2.4129149887513037 4.128382549090233 23.337207156288898 1 0 -1
2097 175 9 0.09 8.768571344259138 8.963272518149317 31.637178687063837 0 2 1
1079 90 11 0.09 8.963719260165941 6.7304348654669575 28.010620142997336 1 0 1
2236 187 4 0.423 3.225047538527564 5.535709930293757 30.50549246301664 1 0 0
948 79 12 0.079 8.889222242707355 4.28677903143267 32.25733040844177 1 -1 1
938 79 2 -0.333 10.734428612306976 3.862520487724234 31.477876490983082 1 -1 1
2092 175 4 0.423 7.1664772731899085 6.411916573820306 31.63934740153795 0 2 1
2099 175 11 0.09 9.57500693903834 7.262975694967985 31.287854870117602 0 2 1
2234 187 2 -0.333 2.8532214508647997 5.616605724981371 31.79510828531153 1 0 0
2098 175 10 0.09 9.086696857266698 8.398715536980248 29.97218684901505 0 2 1
319 27 7 0.09 12.00195451713925 11.376427914701058 30.633327520031955 0 0 1
6123 511 3 -0.093 6.549350370422711 11.922136299630225 28.870477858109233 0 1 1
2095 175 7 0.09 5.704311837083694 7.502856258485629 30.009295440143628 0 2 1
940 79 4 0.423 9.36969332892692 3.72765568382228 31.460968832352243 1 -1 1
942 79 6 0.09 11.572410342260024 5.671171155114736 31.677982610635745 1 -1 1
2237 187 5 -0.523 4.391924231619983 5.195831604213595 30.116009573018943 1 0 0
2089 175 1 -0.093 6.543482476943958 8.184493425473946 30.141681580240807 0 2 1
5446 454 10 0.09 2.5176352830572903 2.6043491208665563 29.99392420414341 0 0 -1
2094 175 6 0.09 6.230378452635549 9.1235917997775 30.73879715984678 0 2 1
2096 175 8 0.09 6.9375702135461 8.474829803531522 29.13580052859705 0 2 1
152 13 8 0.09 7.967035545885874 3.871596848492744 28.30022879768887 1 0 0
6129 511 9 0.09 6.606625273015174 10.988057695067447 29.485880302392758 0 1 1
1533 128 9 0.09 11.012359118610608 11.241222101989466 28.366104470339295 1 0 1
146 13 2 -0.333 6.0126125870466325 3.478342804463784 27.736914757254524 1 0 0
320 27 8 0.09 10.724094963781976 9.960611967778252 30.372488560884314 0 0 1
6125 511 5 -0.523 8.770008236465785 11.471178916346691 30.66576804178478 0 1 1
2090 175 2 -0.333 7.556505416089938 7.4678273049697035 30.846632677125363 0 2 1
3286 274 10 0.09 10.646658703396415 4.784178018720633 27.628477245456097 1 -1 -1
2100 175 12 0.079 6.336987641435208 5.7219270557493065 31.308481468272117 0 2 1
6131 511 11 0.09 5.489699903496668 12.255623676199585 29.031986789579665 0 1 1
937 79 1 -0.093 11.308755407671677 4.802911627814222 32.33136494535766 1 -1 1
1685 141 5 -0.523 3.652558379209168 9.725720898744765 30.05314699152978 1 2 0
314 27 2 -0.333 12.077279318995021 9.759005847149183 32.01052989478351 0 0 1
941 79 5 -0.523 8.84053462667237 2.9925477671816294 30.66579985331431 1 -1 1
145 13 1 -0.093 7.0446201669670145 4.386460205158515 28.020868825312707 1 0 0
2091 175 3 -0.093 8.875274610067557 8.044221480219704 30.97405309161821 0 2 1
2244 187 12 0.079 2.441972690545723 5.792890364028484 29.82722022965761 1 0 0
6130 511 10 0.09 6.733879760232037 11.734184369494079 27.779996395064515 0 1 1
947 79 11 0.09 10.885480510681425 2.6072316793077204 29.812553228214195 1 -1 1
1073 90 5 -0.523 11.008034364275277 7.010027008287082 29.28732575344568 1 0 1
1692 141 12 0.079 2.594266181022096 8.00178022362419 30.398914014851815 1 2 0
150 13 6 0.09 6.6836741211952315 5.069367719414689 28.880741611376532 1 0 0
939 79 3 -0.093 11.557442945383933 3.0882772269628447 30.59752523745563 1 -1 1
1684 141 4 0.423 2.5938790627264616 9.1011369758375 30.140077087979197 1 2 0
946 79 10 0.09 12.4192413904979 3.712811209712865 30.29135755529176 1 -1 1
1072 90 4 0.423 11.411959515594093 7.428915046362981 28.202797074066137 1 0 1
313 27 1 -0.093 11.757563296661823 10.254398633617452 30.675307994254187 0 0 1
983 82 11 0.09 4.963441491438502 9.844473499836269 32.23797714999934 -1 1 -1
3285 274 9 0.09 11.771035067147123 3.384875548355939 27.63190884319643 1 -1 -1
323 27 11 0.09 12.326909949538813 7.797342850696125 32.65411040913014 0 0 1
2235 187 3 -0.093 3.849860488809875 5.6752089626314906 32.901207625398385 1 0 0
5570 465 2 -0.333 10.298755505036864 2.887203784846671 35.6457258525141 1 2 -1
317 27 5 -0.523 11.44886296970264 10.12905354838265 34.1438407500066 0 0 1
2442 204 6 0.09 9.975686187176775 8.416071468628191 35.80452309850838 0 1 -1
4471 373 7 0.09 3.567208032288068 5.784993417212938 36.095990666178125 0 2 1
5575 465 7 0.09 9.581212533219063 4.771266592818704 36.33682018822955 1 2 -1
5572 465 4 0.423 11.593538786735907 3.388411254965066 35.567208867965284 1 2 -1
984 82 12 0.079 5.9305654785856525 11.382464388886792 35.8928802975716 -1 1 -1
944 79 8 0.09 10.586579610516257 5.159881976563442 33.09074178387148 1 -1 1
5569 465 1 -0.093 9.205860341636889 3.725119589539064 36.071552665553625 1 2 -1
5580 465 12 0.079 11.789214511158628 4.437614069901553 35.92224461828451 1 2 -1
2403 201 3 -0.093 9.681595378501955 11.822956526779246 36.34727104228914 0 0 0
2410 201 10 0.09 9.175718557338245 12.024113461385339 35.35053457075391 0 0 0
2444 204 8 0.09 9.711590139797485 7.063214698237467 34.61868959309459 0 1 -1
2877 240 9 0.09 5.274201877659143 2.973518814787647 35.25483443369557 0 1 1
2437 204 1 -0.093 9.20060638129604 7.9519845712759345 35.11206408681676 0 1 -1
2447 204 11 0.09 7.7441359148358195 9.586894091730136 36.241543566400765 0 1 -1
977 82 5 -0.523 4.300111632425734 10.132793499891758 35.82849541694717 -1 1 -1
2438 204 2 -0.333 8.047188899443498 7.669878469316609 35.840525730854644 0 1 -1
976 82 4 0.423 5.261728178107925 10.70451143444874 35.33455994774255 -1 1 -1
316 27 4 0.423 11.376705252883955 10.461238610598171 32.96180008265435 0 0 1
2443 204 7 0.09 8.9639970949417 8.731462475545332 34.35295320969802 0 1 -1
2439 204 3 -0.093 7.653481870393305 8.633279160228366 36.82259783901499 0 1 -1
974 82 2 -0.333 5.701756054807571 10.334931106608202 34.07705486966114 -1 1 -1
2440 204 4 0.423 7.404062745594065 6.507725800797058 35.52400552591715 0 1 -1
2448 204 12 0.079 7.9380872494711054 5.901946545237463 34.74476144242684 0 1 -1
5574 465 6 0.09 8.660610800981303 3.918568491320011 35.10756712801313 1 2 -1
2441 204 5 -0.523 6.406503951458277 6.096766143991467 36.202363886274455 0 1 -1
981 82 9 0.09 3.818056711684342 9.687750813539008 33.60714710393857 -1 1 -1
982 82 10 0.09 5.211326835948979 8.43076788833552 33.33328175861516 -1 1 -1
2243 187 11 0.09 3.4807269618721204 4.948062324093623 33.74082870241524 1 0 0
4465 373 1 -0.093 3.1244423183831436 6.724343645980788 36.28576093725479 0 2 1
979 82 7 0.09 7.528840676661106 11.409649864205996 34.442901471539585 -1 1 -1
2093 175 5 -0.523 7.877005707255307 6.0626499181933 32.641509934944736 0 2 1
4592 383 8 0.09 3.644789393546416 2.7769742906324812 37.01713190936214 -1 -1 -1
2871 240 3 -0.093 6.025753356018846 2.4908812275630083 34.60007940774363 0 1 1
973 82 1 -0.093 7.001662299111212 10.93144531503931 33.62538017338562 -1 1 -1
4472 373 8 0.09 3.776736191159924 7.539847066986472 35.935669053818174 0 2 1
975 82 3 -0.093 4.851131171181176 9.477169716878837 33.266803731574925 -1 1 -1
5576 465 8 0.09 8.557650670761628 3.2504864879872746 36.869491546842674 1 2 -1
2878 240 10 0.09 6.516561728180996 3.387686994627169 34.05234943150639 0 1 1
943 79 7 0.09 12.169915970249601 4.298273347922029 32.72159776058217 1 -1 1
2241 187 9 0.09 3.83114808818316 6.813328970228187 33.13516953781256 1 0 0
324 27 12 0.079 10.650081072409764 11.179242434497704 32.63813430752733 0 0 1
978 82 6 0.09 7.706894848430594 10.20905373784401 33.25046541830834 -1 1 -1
2446 204 10 0.09 6.5570850156298 8.560959130508866 37.06639307549666 0 1 -1
2402 201 2 -0.333 8.751947242601043 12.055518292775929 37.4429062596565 0 0 0
2411 201 11 0.09 9.817167488526952 10.766383695051793 36.23266047730851 0 0 0
3744 312 12 0.079 11.896539443100881 8.079974270915592 36.07681008223984 0 0 0
980 82 8 0.09 6.762319810442182 11.696871582940862 32.83799683372541 -1 1 -1
4590 383 6 0.09 5.214412409340625 3.602631618253122 37.5545914521279 -1 -1 -1
2242 187 10 0.09 4.8133255820317205 5.199937651561578 32.597986383405335 1 0 0
3737 312 5 -0.523 12.41788795962892 6.313516809649282 36.6001154556694 0 0 0
2409 201 9 0.09 10.597866583196666 12.388037962069012 36.45674681805971 0 0 0
2406 201 6 0.09 10.03760076783804 11.995795907009038 39.118447531414965 0 0 0
4733 395 5 -0.523 8.231738610320432 7.5725771522813154 41.914009199533176 1 0 -1
4727 394 11 0.09 4.93874570281803 10.457876462326466 38.810758677469806 1 1 -2
4728 394 12 0.079 6.390033046676443 12.084516514085855 42.17273432933997 1 1 -2
2335 195 7 0.09 10.459428420541762 5.300996097257429 41.41690708675619 -1 0 0
2332 195 4 0.423 11.281446534760075 7.725775455761731 39.720233235734696 -1 0 0
2340 195 12 0.079 12.08639309243246 8.137991392653573 40.41705011217527 -1 0 0
4724 394 8 0.09 4.581790201766244 9.334161346152614 41.17244711340289 1 1 -2
4736 395 8 0.09 5.9434522807799635 4.785638882467525 39.99598081035766 1 0 -1
4726 394 10 0.09 3.4173114872879973 11.319111397816576 39.49912297192911 1 1 -2
4735 395 7 0.09 7.2565396323766755 5.332730980253781 38.68750047368146 1 0 -1
4660 389 4 0.423 2.7463496238044076 5.3593175553070385 41.93575397017518 0 -1 0
2336 195 8 0.09 11.931164504280401 6.353316485517919 41.783302327205995 -1 0 0
4719 394 3 -0.093 4.544818545616307 11.31483463882066 39.43872016555616 1 1 -2
1398 117 6 0.09 11.499254837259135 9.908764501111774 42.43099508957118 1 0 -1
4585 383 1 -0.093 4.342298923925859 2.930955683420418 37.83555617633098 -1 -1 -1
4730 395 2 -0.333 7.055914368997029 6.402346080906677 40.396983220624854 1 0 -1
4739 395 11 0.09 5.3164225940379755 7.312508137171281 40.5513081341563 1 0 -1
2333 195 5 -0.523 10.746986566136428 8.453973717862809 38.889011864341526 -1 0 0
4737 395 9 0.09 6.125962145103728 7.360427864049993 38.93589049972587 1 0 -1
2329 195 1 -0.093 11.422689543718702 5.697456078507364 41.07220487515034 -1 0 0
4738 395 10 0.09 6.682791513304922 8.489744364570404 40.469352778230736 1 0 -1
4731 395 3 -0.093 6.224740504588307 7.499327783831503 40.01499341564949 1 0 -1