LAMMPS data file via write_data, version 29 Aug 2024, timestep = 1000000, units = real

4802 atoms
14 atom types
4802 bonds
14 bond types
6860 angles
20 angle types
9604 dihedrals
28 dihedral types

2.949481140465675 42.05051885952813 xlo xhi
2.949481140465675 42.05051885952813 ylo yhi
2.949481140465675 42.05051885952813 zlo zhi

Masses

1 12.011
2 12.011
3 12.011
4 12.011
5 12.011
6 12.011
7 15.999
8 32.06
9 1.008
10 1.008
11 1.008
12 1.008
13 1.008
14 1.008

Pair Coeffs # lj/charmmfsw/coul/long

1 0.07 3.55005 0.07 3.55005
2 0.07 3.55005 0.07 3.55005
3 0.07 3.55005 0.07 3.55005
4 0.07 3.55005 0.07 3.55005
5 0.07 3.55005 0.07 3.55005
6 0.07 3.55005 0.07 3.55005
7 0.192101 3.14487 0.192101 3.14487
8 0.45 3.56359 0.45 3.56359
9 0.03 2.42004 0.03 2.42004
10 0.03 2.42004 0.03 2.42004
11 0.03 2.42004 0.03 2.42004
12 0.03 2.42004 0.03 2.42004
13 0.045999 0.400014 0.045999 0.400014
14 0.1 0.801809 0.1 0.801809

Bond Coeffs # harmonic

1 305 1.375
2 305 1.375
3 305 1.375
4 305 1.375
5 305 1.375
6 334.3 1.411
7 280 1.75
8 340 1.08
9 340 1.08
10 340 1.08
11 340 1.08
12 545 0.96
13 275 1.325
14 305 1.375

Angle Coeffs # charmm

1 40 120 35 2.4162
2 40 120 35 2.4162
3 40 120 35 2.4162
4 40 120 35 2.4162
5 45.2 120 0 0
6 40 120 0 0
7 30 120 22 2.1525
8 30 120 22 2.1525
9 30 120 22 2.1525
10 30 120 22 2.1525
11 65 108 0 0
12 38.8 95 0 0
13 30 120 22 2.1525
14 40 120 35 2.4162
15 40 120 35 2.4162
16 30 120 22 2.1525
17 30 120 22 2.1525
18 40 120 0 0
19 45.2 120 0 0
20 30 120 22 2.1525

Dihedral Coeffs # charmmfsw

1 3.1 2 180 1
2 3.1 2 180 1
3 3.1 2 180 1
4 0.99 2 180 1
5 1.75 2 0 1
6 2.4 2 180 1
7 4.5 2 180 1
8 4.2 2 180 1
9 3.1 2 180 0
10 3.1 2 180 0
11 3.1 2 180 1
12 4.2 2 180 1
13 0.99 2 180 1
14 4.5 2 180 1
15 4.2 2 180 1
16 4.2 2 180 1
17 3.1 2 180 1
18 2.4 2 180 1
19 2.4 2 180 1
20 4.2 2 180 1
21 2.4 2 180 1
22 4.2 2 180 1
23 4.2 2 180 1
24 3.1 2 180 0
25 1.75 2 0 1
26 2.4 2 180 1
27 4.2 2 180 1
28 3.57 2 180 1

Atoms # full

4594 329 2 -0.116 7.061643313525554 6.018676228414803 5.74781694652834 1 1 1
4601 329 9 0.115 7.78833029594691 5.666885312453676 7.670564237278273 1 1 1
4602 329 10 0.115 6.314191669686754 6.701739675787286 6.169232893478727 1 1 1
2658 190 12 0.115 5.82841328748404 6.355365554168937 10.414382636723275 0 1 -1
4593 329 1 -0.114 7.84530272393491 5.379284585748847 6.620820674605731 1 1 1
3247 232 13 0.42 8.938534332993633 7.406490445411206 9.806044150377893 0 1 -1
3240 232 6 -0.114 11.981776450940336 8.005010532611069 8.93378878420569 0 1 -1
3241 232 7 -0.536 9.909069037487907 7.155227018765604 9.851537976399582 0 1 -1
3239 232 5 0.08799999999999999 10.544670186531803 8.027723361208729 8.932132356751765 0 1 -1
4595 329 3 -0.124 7.147116546368687 5.677103621310533 4.366089906439095 1 1 1
2652 190 6 -0.114 6.2380896997159105 5.345120015333604 10.465062243966017 0 1 -1
2651 190 5 0.08799999999999999 7.203625611311866 5.026242014004636 11.449908692783922 0 1 -1
3238 232 4 0.117 9.833888431090642 8.87428287773374 8.071256918562113 0 1 -1
556 40 10 0.115 3.5158451259008707 5.864699770382305 5.8933620419949975 1 1 0
3242 232 8 -0.241 8.033268010181366 8.923430105443803 8.218746346074822 0 1 -1
1532 110 6 -0.114 5.269016798494653 9.094816553556758 4.0225722752442605 0 0 0
3614 259 2 -0.116 10.157000172931447 8.51664005115595 3.3566526507395102 0 1 1
3248 232 14 0.16 7.9980740383382125 9.911672643673597 9.15725703994185 0 1 -1
2647 190 1 -0.114 5.91694236697155 4.5197841629198345 9.39234838223815 0 1 -1
3621 259 9 0.115 9.587897618905338 6.9727998648349505 4.755948736390243 0 1 1
2655 190 9 0.115 5.178579416357794 4.755030077944137 8.697552519659752 0 1 -1
1695 122 1 -0.114 3.5069901405095303 9.341305244951094 9.135875791751648 1 1 0
4003 286 13 0.42 7.232614355469722 7.75165073599002 12.175835159051404 1 0 0
1538 110 12 0.115 6.237231233833311 9.042467843103244 4.500002210345641 0 0 0
3995 286 5 0.08799999999999999 6.163284042156066 9.410766095211347 12.18521899126092 1 0 0
3962 283 14 0.16 12.178881749908982 4.082765491670479 8.566971134892665 2 1 1
2648 190 2 -0.116 6.647098079912281 3.290928173118651 9.21066215510793 0 1 -1
3237 232 3 -0.124 10.511131020396316 9.658000657080091 7.160677735461052 0 1 -1
3624 259 12 0.115 11.597102640164358 5.646576780537107 4.491130368002002 0 1 1
1704 122 10 0.115 4.88950926127578 7.692427451652058 8.857419099365679 1 1 0
1696 122 2 -0.116 3.8647778207638277 8.002310757416023 9.118423979879442 1 1 0
4603 329 11 0.115 6.469931979901892 6.0563208558320465 3.7202913728299656 1 1 1
4596 329 4 0.117 8.055118149812003 4.642869102861084 3.9138996805250503 1 1 1
3951 283 3 -0.124 12.100610787499017 4.509191895618595 11.487607844504806 2 1 1
3613 259 1 -0.114 10.33673193669571 7.361349233711482 4.12258096423228 0 1 1
3618 259 6 -0.114 11.529231905809663 6.639587532544007 3.937492093333302 0 1 1
3236 232 2 -0.116 11.910586268775315 9.69182543031702 7.116676286688707 0 1 -1
3245 232 11 0.115 9.910365427261343 10.227206484867752 6.339094149985419 0 1 -1
4001 286 11 0.115 4.152512104237439 12.223756223313611 11.575581606187912 1 0 0
3956 283 8 -0.241 10.979140095152518 3.7781131810072432 9.097731659299413 2 1 1
3235 232 1 -0.114 12.675301947954939 8.871251512953688 8.03271034374489 0 1 -1
3622 259 10 0.115 9.263015521635424 9.042847830799865 3.3829453788463204 0 1 1
2650 190 4 0.117 7.91976748305819 3.8116551900192257 11.284977308103244 0 1 -1
3246 232 12 0.115 12.529208837552803 7.470566068137669 9.685339014799311 0 1 -1
3997 286 7 -0.536 7.325316204422292 8.666152899293776 11.809503272635279 1 0 0
4597 329 5 0.08799999999999999 8.84115465165419 3.9330910253983893 4.845613671772275 1 1 1
555 40 9 0.115 3.8680885896742407 5.921459360721409 3.446044792292595 1 1 0
4598 329 6 -0.114 8.749438512184668 4.331999621026479 6.167058557799777 1 1 1
3952 283 4 0.117 11.813349442242334 3.455004947590348 10.596613282145483 2 1 1
1535 110 9 0.115 4.244120277309317 9.910850814433992 5.748692096608286 0 0 0
3244 232 10 0.115 12.515823601012855 10.222736143011907 6.413829839364908 0 1 -1
3617 259 5 0.08799999999999999 12.521729395949867 7.112137118079222 3.122377781625496 0 1 1
1527 110 1 -0.114 4.151470026948495 9.584893666280491 4.7525075840352855 0 0 0
168 12 14 0.16 9.36312853551851 13.446994163949295 3.760829866998429 0 0 0
4604 329 12 0.115 9.284405762363704 3.9011641894676945 7.0174747734291305 1 1 1
3865 277 1 -0.114 8.46587529924583 15.624007038840167 3.8594840298676307 1 1 1
2653 190 7 -0.536 7.404175553130069 5.809325061852548 12.554103950207406 0 1 -1
3364 241 4 0.117 6.541111283688999 15.055980153099535 12.685548423289655 1 1 1
2660 190 14 0.16 10.020853748334392 3.8045029735411218 11.75288172336459 0 1 -1
163 12 9 0.115 7.034489925858951 14.225122264562966 9.216165470922224 0 0 0
164 12 10 0.115 9.47908215302228 13.890930531282747 8.99305283813161 0 0 0
4085 292 11 0.115 3.402529028837616 13.50289702736667 5.287704875047902 1 1 1
4605 329 13 0.42 10.223063935797867 3.1886390168001695 3.93701549093306 1 1 1
4004 286 14 0.16 7.249458668887308 12.27967478926747 11.44098736466146 1 0 0
4537 325 1 -0.114 12.081792202879736 11.012492497595142 11.490494557563181 1 1 -1
1703 122 9 0.115 4.280888183480086 10.090079364107673 9.144273913462978 1 1 0
2152 154 10 0.115 3.0891460038902028 15.926410855684395 5.958069697598348 0 0 1
4745 339 13 0.42 3.4332791164014806 3.249769628720726 10.050704437650145 1 1 0
3368 241 8 -0.241 4.809079521735098 14.780615383697642 12.50092492462947 1 1 1
160 12 6 -0.114 6.533584577268212 13.550221187591113 7.257289970039372 0 0 0
1705 122 11 0.115 3.097875280115616 5.953186785002881 9.121404412946973 1 1 0
159 12 5 0.08799999999999999 7.09390741816305 12.999963862797218 6.062431149885713 0 0 0
4545 325 9 0.115 12.1008247519992 10.756000205829526 10.47694817190552 1 1 -1
547 40 1 -0.114 3.0142026585863158 5.357621005232465 3.8302295957771126 1 1 0
2654 190 8 -0.241 9.065562640930661 3.1518577243477353 12.40832284087379 0 1 -1
3959 283 11 0.115 11.930713265768446 5.499846493045224 11.11226290785272 2 1 1
157 12 3 -0.124 9.258637867188579 12.995642749523764 7.001829363551634 0 0 0
165 12 11 0.115 10.32717058793336 12.856356275479296 6.858358271165683 0 0 0
161 12 7 -0.536 6.099972040208043 12.81313407976239 5.062686505937926 0 0 0
155 12 1 -0.114 7.406171553156491 13.873274101764878 8.292606699101658 0 0 0
156 12 2 -0.116 8.788947047679716 13.585499947091359 8.200890087153532 0 0 0
3994 286 4 0.117 5.767356647166587 10.666153079314714 11.54553543255089 1 0 0
3998 286 8 -0.241 6.760228401704133 11.566962456109298 10.348459457288017 1 0 0
166 12 12 0.115 5.511192928411887 13.804028918971545 7.172936772991571 0 0 0
167 12 13 0.42 6.4782903538875125 12.833008109704544 4.190788555364707 0 0 0
3993 286 3 -0.124 4.554097211478059 11.247786872566735 11.905013772370433 1 0 0
158 12 4 0.117 8.457760902155881 12.767050659438196 5.894843734790188 0 0 0
162 12 8 -0.241 9.203722473843964 12.22050676045431 4.3533957133708405 0 0 0
4546 325 10 0.115 10.002074014743485 10.397701686109862 11.717546515024916 1 1 -1
3950 283 2 -0.116 12.713894422276976 4.1760043704743115 12.66235536506786 2 1 1
3873 277 9 0.115 7.564374348480263 15.511339940142257 4.460091233547826 1 1 1
4538 325 2 -0.116 10.900846189736964 10.893966658511612 12.178252002302715 1 1 -1
2649 190 3 -0.124 7.6972552743066505 2.9569111148671916 10.19091913448841 0 1 -1
1998 143 10 0.115 12.451188914142143 13.370734444779682 3.998727754973995 0 1 1
4084 292 10 0.115 3.0273957417652184 11.998743886701433 7.1103349828617 1 1 1
3400 243 12 0.115 6.243553804524456 6.3914413305123166 16.882868776617276 0 1 1
3394 243 6 -0.114 5.654886519646962 6.456478740748479 17.79100864625111 0 1 1
3393 243 5 0.08799999999999999 5.76979219115672 7.594951373482102 18.528881890416145 0 1 1
3392 243 4 0.117 5.175744071187088 7.740995868396296 19.82818413223048 0 1 1
3391 243 3 -0.124 4.396867854074381 6.687997103044271 20.322069712591645 0 1 1
3389 243 1 -0.114 5.108237798159115 5.315992469355901 18.42134309736111 0 1 1
189 14 7 -0.536 8.685774843121711 7.678454846929856 20.832514824023104 0 0 1
195 14 13 0.42 8.785974707536981 7.0020089556225615 20.204432711416246 0 0 1
2357 169 5 0.08799999999999999 9.787952092148679 8.600530314057934 16.12259138831992 0 1 0
2380 170 14 0.16 9.390907692157363 5.850715863459275 15.098255715416235 0 1 0
2356 169 4 0.117 10.913758991963629 8.072206251605172 15.35655752061723 0 1 0
2359 169 7 -0.536 8.58309226174785 8.799140179870193 15.458662953762207 0 1 0
3397 243 9 0.115 5.234476542263669 4.394280095837717 17.961896860468865 0 1 1
2379 170 13 0.42 8.07225465461964 5.720104903144465 17.810332182580282 0 1 0
2373 170 7 -0.536 8.746137560046723 5.843847008316468 18.5072564586408 0 1 0
2371 170 5 0.08799999999999999 10.038600446593982 5.305909605241498 18.140091302145773 0 1 0
2370 170 4 0.117 10.335106432678469 4.779437967316126 16.86393008825938 0 1 0
2378 170 12 0.115 10.751859717542718 5.618892270077424 20.14550947117105 0 1 0
2355 169 3 -0.124 12.095975654539041 7.899845026023462 16.137459238960155 0 1 0
2360 169 8 -0.241 11.009607867418747 7.572642108564835 13.726776992409958 0 1 0
2372 170 6 -0.114 10.972492433598985 5.337686003421755 19.182679458682653 0 1 0
3390 243 2 -0.116 4.44110224596516 5.442886175253088 19.611541724344278 0 1 1
2365 169 13 0.42 7.762816300476097 8.91978377968805 16.07806757819423 0 1 0
2353 169 1 -0.114 11.106324881934125 8.752298631967879 18.09766049816024 0 1 0
2358 169 6 -0.114 9.880181598298762 8.974645074288318 17.43472954420494 0 1 0
3395 243 7 -0.536 6.558515109871877 8.609110600167547 17.991634073912188 0 1 1
2354 169 2 -0.116 12.20912027235467 8.096932345746914 17.509584232531786 0 1 0
2364 169 12 0.115 9.015031077062325 9.368166433162838 17.929913954497884 0 1 0
2361 169 9 0.115 11.113521251256829 8.980640238404487 19.10438409070437 0 1 0
3402 243 14 0.16 6.308234649327524 8.62234659079342 21.657792170398128 0 1 1
194 14 12 0.115 8.656625319827498 5.159731348008352 20.892216020104943 0 0 1
4320 309 8 -0.241 4.208111137135349 10.896259157295196 17.180906410497755 1 0 0
2367 170 1 -0.114 12.22973040596223 4.8063206442815956 18.98083959232523 0 1 0
2836 203 8 -0.241 8.188061279010183 15.859460421354642 18.87925395440066 0 1 0
4243 304 1 -0.114 12.32124817778166 7.314424626535283 21.385201288280445 1 0 -1
2374 170 8 -0.241 9.129726524526557 4.606647865468633 15.528388198269878 0 1 0
1793 129 1 -0.114 12.513133488416617 12.165201548726591 22.21962340779999 0 1 0
4323 309 11 0.115 3.047627151171035 13.395906346690298 17.0239823907999 1 0 0
2659 190 13 0.42 7.974628328348606 5.369403216121961 13.168397898624193 0 1 -1
2366 169 14 0.16 11.648572651581974 8.681264538716716 13.306935972625682 0 1 0
2368 170 2 -0.116 12.49026415603402 4.286657374199864 17.767891238748682 0 1 0
3401 243 13 0.42 6.273281765086384 9.410807409890252 18.468071332299125 0 1 1
3996 286 6 -0.114 5.2562860747802915 8.838731996781348 13.090009782128588 1 0 0
4002 286 12 0.115 5.586211798037028 7.869702327711976 13.466571427955738 1 0 0
3399 243 11 0.115 3.899104879812899 6.83535448211635 21.262889379403934 0 1 1
3398 243 10 0.115 4.117162965366321 4.572665298830157 20.166230366474615 0 1 1
3999 286 9 0.115 3.4177364422706504 9.053330910106055 14.207767362463324 1 0 0
3396 243 8 -0.241 5.259243392872042 9.152060428105363 20.89196534551964 0 1 1
1449 104 7 -0.536 11.414978074519915 15.62589989141076 15.941838327956008 0 -1 0
3992 286 2 -0.116 3.8139856373359406 10.747938223216714 12.926215190735153 1 0 0
4319 309 7 -0.536 7.422366149495897 11.598230800094019 16.952822013067035 1 0 0
2377 170 11 0.115 12.013224342251712 3.972487116803859 15.735296347776004 0 1 0
3991 286 1 -0.114 4.077667038932466 9.528915326036223 13.514433933426238 1 0 0
3209 230 3 -0.124 3.4378522856904277 13.48115652305707 21.72923513309831 1 0 0
2369 170 3 -0.124 11.626158727759229 4.188344773699837 16.734417017491843 0 1 0
187 14 5 0.08799999999999999 8.45233131899218 7.014589114737841 22.00006227143717 0 0 1
2841 203 13 0.42 10.647456964634454 15.015887252357288 18.16562285644637 0 1 0
4550 325 14 0.16 12.34124487608025 10.459083249428446 16.348122657552608 1 1 -1
4251 304 9 0.115 11.557928533508193 8.012084619744398 21.043223252285784 1 0 -1
4244 304 2 -0.116 12.16924336496885 6.399993862278832 22.385788942521827 1 0 -1
3217 230 11 0.115 4.47028291076277 13.625551661944986 22.040500419790604 1 0 0
668 48 10 0.115 6.560345634723996 3.10321173373814 19.092248288317307 -1 1 0
3208 230 2 -0.116 3.19916067797436 12.706311950755552 20.63557170076615 1 0 0
1801 129 9 0.115 11.952007205355661 12.58511801476228 21.428189450308746 0 1 0
1455 104 13 0.42 11.338152786340688 14.720152044424404 16.271670815102837 0 -1 0
2839 203 11 0.115 6.735390892629003 14.115959903148362 20.144948126340775 0 1 0
3372 241 12 0.115 9.4388022964317 13.720218397760156 13.859068173778837 1 1 1
3361 241 1 -0.114 9.195316520274908 15.714331314624477 13.186576498469286 1 1 1
4322 309 10 0.115 3.940711452429508 15.614118170631107 16.47234645961843 1 0 0
4315 309 3 -0.124 4.11851684974458 13.510624146151493 16.88240283230663 1 0 0
4544 325 8 -0.241 11.840878409435843 11.676320666411874 16.017719461438755 1 1 -1
4547 325 11 0.115 9.974950727656964 10.926428559919511 14.073700641203143 1 1 -1
4539 325 3 -0.124 10.894485139948742 11.109981153148597 13.523971729801358 1 1 -1
4324 309 12 0.115 7.906245307831583 13.976167790263755 16.19558008174711 1 0 0
4540 325 4 0.117 11.991322806467485 11.448875895852268 14.260258176893352 1 1 -1
3216 230 10 0.115 4.04367915055646 12.312627967587863 20.07948463848479 1 0 0
3374 241 14 0.16 4.7622927006751805 14.420803171283485 13.773960462423473 1 1 1
2833 203 5 0.08799999999999999 9.915611858684237 13.51939549714574 19.160379679654852 0 1 0
3367 241 7 -0.536 7.104615975757035 12.670404648913074 13.329006554242396 1 1 1
3373 241 13 0.42 6.208851844032029 12.486624568591925 13.253461608323402 1 1 1
4318 309 6 -0.114 6.881441608365676 13.896434433680303 16.481369461030514 1 0 0
2840 203 12 0.115 10.978040444747988 11.667846729888458 19.404082742235683 0 1 0
2834 203 6 -0.114 10.049019494734486 12.216212454514993 19.629204719292332 0 1 0
4316 309 4 0.117 5.0466010839365705 12.388074259062904 16.946983378305994 1 0 0
2838 203 10 0.115 7.145866740431897 11.788712885552075 21.302188338894297 0 1 0
2837 203 9 0.115 9.221850479142255 10.673393422938158 20.915421754401255 0 1 0
2832 203 4 0.117 8.69123658349935 14.232883836911167 19.405362256526956 0 1 0
2831 203 3 -0.124 7.659402248036814 13.63048539048647 20.147113515054063 0 1 0
188 14 6 -0.114 8.457634951684412 5.602679108539133 21.83600483325463 0 0 1
4317 309 5 0.08799999999999999 6.418657340828857 12.603502148885442 16.948750590486867 1 0 0
4326 309 14 0.16 4.496296426794186 10.762587845782999 15.817829202786067 1 0 0
2830 203 2 -0.116 7.886800024639523 12.355968184276533 20.66266106426462 0 1 0
3366 241 6 -0.114 8.745959244573207 14.444606441958399 13.379006284111483 1 1 1
4325 309 13 0.42 8.321654947514743 11.972198243143172 17.053336097495382 1 0 0
2829 203 1 -0.114 9.092062577288074 11.638050820050356 20.42465740035013 0 1 0
4313 309 1 -0.114 6.011129773360238 14.997950088123396 16.328281787978668 1 0 0
3365 241 5 0.08799999999999999 7.4615568346871175 14.021580778781209 13.080870044381605 1 1 1
4314 309 2 -0.116 4.63285786668416 14.772251478183865 16.63010543222113 1 0 0
2835 203 7 -0.536 10.93175397982996 14.098301272337306 18.339263285492326 0 1 0
1802 129 10 0.115 11.30599173964592 10.377127975998725 22.303931901380537 0 1 0
3524 252 10 0.115 3.147638210162916 6.5107272651428385 12.822551949096464 0 -1 1
4000 286 10 0.115 2.980018623414414 11.312430375030146 13.294911057574234 1 0 0
4321 309 9 0.115 6.3895899019752775 15.953364032966823 15.993317787342146 1 0 0
185 14 3 -0.124 7.927328195936289 6.711680538908478 24.30295797636998 0 0 1
193 14 11 0.115 7.725630095301167 7.196279772677061 25.24257029616377 0 0 1
4124 295 8 -0.241 4.878734174716567 7.287706716227968 26.605464500942 1 0 -1
1308 94 6 -0.114 9.489139036592771 3.9227438306997446 28.751897339665398 1 1 -1
121 9 9 0.115 6.029238334403612 6.280300882824359 29.608668195261032 0 1 -1
1303 94 1 -0.114 8.876723077721849 3.8267240022201108 27.47006311236889 1 1 -1
184 14 2 -0.116 7.881533036845472 5.339851960531355 24.187585354625384 0 0 1
1311 94 9 0.115 8.88092436947683 4.690824224652125 26.836710640615816 1 1 -1
192 14 10 0.115 7.651246483864968 4.6290740052754735 24.926940918789693 0 0 1
3837 275 1 -0.114 3.9761877226776106 8.196599008795918 31.086947671882086 1 0 -1
4370 313 2 -0.116 10.944263540529056 6.447264159858057 26.145344104034955 0 0 0
1885 135 9 0.115 5.138285368711374 4.017580154155193 26.972014016205527 1 2 -2
183 14 1 -0.114 8.216849090342166 4.7894443250393985 22.87819103892669 0 0 1
1314 94 12 0.115 9.939192496731508 4.897398556738179 28.914623400294087 1 1 -1
4374 313 6 -0.114 12.598187904078058 6.779033102149052 27.84983957592606 0 0 0
4371 313 3 -0.124 10.610170506096775 7.77894420460684 26.240533539332617 0 0 0
191 14 9 0.115 8.217129306234234 3.730601534974644 22.676500209679233 0 0 1
114 9 2 -0.116 7.795949000614227 7.498134485332846 29.694606599339085 0 1 -1
115 9 3 -0.124 8.823756368648116 7.9477832810466325 30.518447486230265 0 1 -1
113 9 1 -0.114 6.863719522323911 6.645432991116959 30.139668052116516 0 1 -1
123 9 11 0.115 9.604780833356164 8.6630800618358 30.208122001068137 0 1 -1
122 9 10 0.115 7.797580528222149 7.876202591064582 28.67714491669893 0 1 -1
1309 94 7 -0.536 9.827191004297383 3.177193169648318 31.013113770327507 1 1 -1
118 9 6 -0.114 6.773364062328966 6.350915685987035 31.500576164795593 0 1 -1
2696 193 8 -0.241 3.677233256949087 5.5797758495876035 23.571473120485294 1 1 1
1315 94 13 0.42 9.840030914862192 4.146622754210228 31.138060147505755 1 1 -1
4379 313 11 0.115 9.97667467924921 8.113279794903367 25.403323308156203 0 0 0
186 14 4 0.117 8.19963331014647 7.545144595988905 23.21575895418924 0 0 1
116 9 4 0.117 8.836232324480598 7.536730010001716 31.80846357190568 0 1 -1
4130 295 14 0.16 3.7921610413978355 7.390828867998997 27.424302944143438 1 0 -1
4372 313 4 0.117 11.190154452898463 8.635694871436009 27.200235834054705 0 0 0
4123 295 7 -0.536 3.758248274834584 9.034248889091284 24.180591434586383 1 0 -1
3933 281 13 0.42 10.433323249765742 13.102659238448348 31.580192495908683 1 0 0
2702 193 14 0.16 4.029476443653486 4.967530617151009 24.69603024323877 1 1 1
3924 281 4 0.117 12.623196645037694 11.93317048396689 31.90025290412257 1 0 0
3911 280 5 0.08799999999999999 8.80194191354053 15.881843888094972 23.19797023540827 1 0 0
4120 295 4 0.117 4.757820267765602 8.984203177513916 26.47504299240371 1 0 -1
4121 295 5 0.08799999999999999 4.263577058655862 9.686637927007514 25.32083583600893 1 0 -1
3842 275 6 -0.114 3.2751506791863916 7.400889519604406 30.16269962477755 1 0 -1
3920 280 14 0.16 11.940166759698844 14.515649623296802 22.910882694201007 1 0 0
1877 135 1 -0.114 4.279519977402145 3.560031167897682 26.5858658245151 1 2 -2
124 9 12 0.115 5.985083856552947 5.73433366099737 31.906599249228048 0 1 -1
3838 275 2 -0.116 3.7759076065546413 9.615911137186009 30.921665369552244 1 0 -1
3914 280 8 -0.241 11.511967813792333 15.649372261782885 23.380641510911953 1 0 0
4377 313 9 0.115 12.116635056938163 4.8708732402030535 26.9830115428019 0 0 0
4378 313 10 0.115 10.334717139069747 5.82837843576804 25.543543976603615 0 0 0
3848 275 12 0.115 3.355995944317047 6.318747830789903 30.13461257036091 1 0 -1
3928 281 8 -0.241 11.632069268153515 10.761918697100334 31.069138644291197 1 0 0
1852 133 4 0.117 7.486807018290639 14.08032027209844 29.141927984111973 0 0 0
4382 313 14 0.16 11.67224935241445 10.620616259132238 26.376980913869467 0 0 0
3907 280 1 -0.114 7.2536693834618085 14.109104442001708 23.80825285994173 1 0 0
1850 133 2 -0.116 5.74538661779887 13.664812229314053 30.832534809376227 0 0 0
4373 313 5 0.08799999999999999 12.27959744039622 8.124481392590784 27.986624388916344 0 0 0
3927 281 7 -0.536 11.00315831866799 13.845582549837848 31.85447253749965 1 0 0
2039 146 9 0.115 3.6283272887499725 13.946257548503473 27.68646293306248 2 1 0
1849 133 1 -0.114 6.5742123950436255 12.771565023636091 31.44757265031483 0 0 0
2042 146 12 0.115 3.366126624745858 15.40297050997725 29.45410995949443 2 1 0
4129 295 13 0.42 4.145062382474806 9.454012945746276 23.34058882543532 1 0 -1
4128 295 12 0.115 4.022328297451421 11.606184901029755 24.327926901618035 1 0 -1
853 61 13 0.42 10.527002185360072 15.95818411378369 31.65062363335214 0 0 0
3915 280 9 0.115 6.205570673043852 13.869280591723863 24.115814412052732 1 0 0
1854 133 6 -0.114 7.7956078993901 12.44673612974365 30.88732505099102 0 0 0
4376 313 8 -0.241 10.6144710031344 10.303131549727533 27.174147289951307 0 0 0
196 14 14 0.16 7.331695225871535 9.562754742539187 23.621903588508506 0 0 1
4125 295 9 0.115 5.419212882228159 12.839748879397709 26.057091215382567 1 0 -1
1853 133 5 0.08799999999999999 8.209225338504472 13.081054380123804 29.728853261810222 0 0 0
4126 295 10 0.115 6.111530472596751 11.668018097444714 28.07127461064898 1 0 -1
3912 280 6 -0.114 7.451702901714794 15.395774386093116 23.371684809659786 1 0 0
4369 313 1 -0.114 11.932481967103415 5.95827616496655 26.959531766963618 0 0 0
1803 129 11 0.115 12.619792013776761 9.383397122461883 24.12574830669832 0 1 0
1859 133 11 0.115 5.789052548058246 15.273555673616189 29.33350513270784 0 0 0
1861 133 13 0.42 9.752254655615115 13.401848643754589 28.60137582401595 0 0 0
1858 133 10 0.115 4.797145099425737 13.951995853110706 31.222392939775304 0 0 0
3909 280 3 -0.124 9.665557284331818 13.770056324718022 24.11428160556299 1 0 0
4331 310 5 0.08799999999999999 12.193707768749103 14.873756384459142 27.814526497006398 1 0 0
3916 280 10 0.115 8.063352532540982 12.224247281304967 24.373995405089854 1 0 0
4333 310 7 -0.536 11.034232369380547 14.338579558303945 27.125506363065917 1 0 0
4122 295 6 -0.114 4.398685215733497 11.131106422928237 25.21050456822548 1 0 -1
1855 133 7 -0.536 9.45974564407809 12.760818505188247 29.274941028570222 0 0 0
4381 313 13 0.42 12.424498989062553 9.54455968774073 29.402021392106963 0 0 0
1856 133 8 -0.241 8.05049296230106 15.135968369045688 27.851846056555225 0 0 0
3908 280 2 -0.116 8.330541052499571 13.270597652306114 24.232704610880482 1 0 0
4117 295 1 -0.114 5.131160542184748 11.794424150590457 26.18938331373592 1 0 -1
4339 310 13 0.42 10.740164608396181 15.067671317190444 26.58336222169104 1 0 0
4119 295 3 -0.124 5.3621485370810085 9.757193587198593 27.463622043114636 1 0 -1
190 14 8 -0.241 8.53321001894911 9.231107439338341 23.696581017970075 0 0 1
1851 133 3 -0.124 6.36942093521851 14.483443035931634 29.768037124586172 0 0 0
4127 295 11 0.115 5.827985916267695 9.353304760690648 28.396301044313553 1 0 -1
3910 280 4 0.117 9.879287630938848 15.052146845355352 23.62285388465173 1 0 0
1860 133 12 0.115 8.485946584150462 11.733279001217557 31.463037580675966 0 0 0
4118 295 2 -0.116 5.563322325956387 11.072741452164323 27.331727255803894 1 0 -1
3917 280 11 0.115 10.436596729872058 13.064082962405356 24.32607052336759 1 0 0
854 61 14 0.16 7.781590470997656 14.635246233842945 32.17060915390617 0 0 0
3846 275 10 0.115 4.272622645596998 10.349755866924813 31.52236180877859 1 0 -1
1794 129 2 -0.116 12.053026095238751 10.97165394386107 22.78933122715035 0 1 0
1862 133 14 0.16 8.757869462683114 15.92482190073616 28.707937598676974 0 0 0
3845 275 9 0.115 4.480820673923025 7.850861302609594 32.003554637392355 1 0 -1
4338 310 12 0.115 12.535989128770765 12.945948515906702 28.793986260376577 1 0 0
4252 304 10 0.115 11.276061697291457 6.169924256787324 22.930010022034104 1 0 -1
1878 135 2 -0.116 2.9899700678873136 3.7577670926389466 27.159229230505776 1 2 -2
3925 281 5 0.08799999999999999 12.286519437543738 13.268018659122838 32.1346576892431 1 0 0
3934 281 14 0.16 11.128064688000537 10.278359339190702 32.12180337600465 1 0 0
1886 135 10 0.115 2.955055537665473 4.299954004181414 28.06311240365057 1 2 -2
400 29 8 -0.241 9.046504489227999 7.726951278266668 39.100130658872644 1 1 0
396 29 4 0.117 9.985194070635146 6.6727481956653465 38.085227152640655 1 1 0
2285 164 3 -0.124 5.60638193817374 5.764340686173313 36.439326818019794 0 0 0
2293 164 11 0.115 6.257248897318052 6.327986995271418 35.81930749473828 0 0 0
406 29 14 0.16 10.17169170838103 8.236357675194707 39.57136039682969 1 1 0
2286 164 4 0.117 4.318362452354949 5.351999878172673 36.141981834408654 0 0 0
397 29 5 0.08799999999999999 10.025447262840714 6.714074553659403 36.68671803326511 1 1 0
399 29 7 -0.536 9.479836534019483 7.826169894256484 36.021518609332105 1 1 0
405 29 13 0.42 9.00001862328943 8.318364278341974 36.6605361571975 1 1 0
125 9 13 0.42 8.23593562982473 6.992209221135715 34.30430929699578 0 1 -1
2443 175 7 -0.536 11.465251827173375 3.685789394217003 41.580577043875664 0 0 0
1539 110 13 0.42 5.7895995656408985 7.887300339425376 40.3955242853535 0 0 -1
2283 164 1 -0.114 5.354019007802444 4.889978913640465 38.77310383783963 0 0 0
2284 164 2 -0.116 6.050899042005384 5.647745986722233 37.77170626037656 0 0 0
398 29 6 -0.114 10.65829898300679 5.7279222322575745 35.98154391028977 1 1 0
404 29 12 0.115 10.743733893440861 5.765307360796611 34.831671362558936 1 1 0
2288 164 6 -0.114 4.110173592435284 4.409458238656639 38.41809600518924 0 0 0
119 9 7 -0.536 7.710689425575393 6.402113248539843 33.78234408720468 0 1 -1
2292 164 10 0.115 7.015005024667077 5.998383002168678 37.98485680630239 0 0 0
394 29 2 -0.116 11.275386670299232 4.57839509097081 38.04556390410329 1 1 0
3473 249 1 -0.114 7.9319198555603085 3.484779379842905 35.55365365514578 1 0 0
2296 164 14 0.16 4.502105081732792 4.87653929461314 33.98266807129032 0 0 0
4174 299 2 -0.116 11.80352534614254 14.067448490188221 37.20511419573961 0 0 -1
1534 110 8 -0.241 3.4024546166797087 7.866744456231625 39.68818410662705 0 0 -1
393 29 1 -0.114 11.38130119456377 4.698942562967388 36.660160138120034 1 1 0
395 29 3 -0.124 10.548989279091767 5.536281622718643 38.76821964669183 1 1 0
2711 194 9 0.115 3.1870546329346348 10.343807688387574 37.9409438063562 0 1 0
4600 329 8 -0.241 8.090197559846779 4.427397349802002 41.341944910672225 1 1 0
2290 164 8 -0.241 3.7151748888474723 5.82607456374301 34.568158703212944 0 0 0
4184 299 12 0.115 12.054993700659166 11.717202399257046 39.62591816778696 0 0 -1
2713 194 11 0.115 4.476155743038775 9.963354703128541 33.87502571221738 0 1 0
2703 194 1 -0.114 3.94660898767144 10.232834084178522 37.1997749008507 0 1 0
2705 194 3 -0.124 4.693468763940664 9.972232855472345 34.9120340403652 0 1 0
2704 194 2 -0.116 3.6330423668075946 10.197280299219415 35.83437703722964 0 1 0
401 29 9 0.115 11.9380110124452 3.999336367228419 36.11349138245946 1 1 0
4181 299 9 0.115 12.617597703116003 14.062558218234571 39.18003752516269 0 0 -1
2291 164 9 0.115 5.6705030995093475 4.693159984712368 39.76969603112971 0 0 0
2294 164 12 0.115 3.4827549074685873 3.8965898977574076 39.13632520277193 0 0 0
4606 329 14 0.16 9.01289335594524 5.296166712795381 40.97583632438638 1 1 0
2287 164 5 0.08799999999999999 3.550529638678419 4.663670873551704 37.157390395543075 0 0 0
403 29 11 0.115 10.334242491033299 5.427301210987796 39.85358473463563 1 1 0
117 9 5 0.08799999999999999 7.729502170729113 6.782355142386942 32.36846365771475 0 1 -1
126 9 14 0.16 9.597173185411698 9.402417377797285 32.84251435160182 0 1 -1
3870 277 6 -0.114 8.420170984481656 15.263605706642236 41.61828116402836 1 1 0
3615 259 3 -0.124 11.169092617613458 9.020990793034638 41.66246301402201 0 1 0
3616 259 4 0.117 12.368848613029686 8.331926161221924 41.536415952755064 0 1 0
3871 277 7 -0.536 9.192800764054894 15.524736027308867 39.452740227277474 1 1 0
1533 110 7 -0.536 6.242446966342259 8.037149704934496 41.242691318306115 0 0 -1
833 60 7 -0.536 8.76775256427345 12.064813864745213 39.504118089862374 0 0 0
120 9 8 -0.241 10.171221148138404 8.151777106199997 32.74910026310194 0 1 -1
827 60 1 -0.114 5.388161128561126 12.392436769403444 40.78073723357383 0 0 0
2387 171 7 -0.536 11.276738921392424 3.258466195881831 33.85261817287771 0 1 0