LAMMPS data file via write_data, version 29 Aug 2024, timestep = 1000000, units = real

5831 atoms
17 atom types
5831 bonds
17 bond types
10633 angles
31 angle types
18865 dihedrals
55 dihedral types

3.0341157713218507 41.9658842286724 xlo xhi
3.0341157713218507 41.9658842286724 ylo yhi
3.0341157713218507 41.9658842286724 zlo zhi

Masses

1 12.011
2 12.011
3 12.011
4 12.011
5 12.011
6 12.011
7 15.999
8 1.008
9 1.008
10 1.008
11 1.008
12 1.008
13 1.008
14 1.008
15 1.008
16 1.008
17 1.008

Pair Coeffs # lj/charmmfsw/coul/long

1 0.055999 3.58141 0.01 3.38542
2 0.055999 3.58141 0.01 3.38542
3 0.032 3.56359 0.01 3.38542
4 0.055999 3.58141 0.01 3.38542
5 0.068 3.72396 0.068 3.72396
6 0.068 3.72396 0.068 3.72396
7 0.192101 3.14487 0.192101 3.14487
8 0.035 2.38761 0.035 2.38761
9 0.035 2.38761 0.035 2.38761
10 0.035 2.38761 0.035 2.38761
11 0.035 2.38761 0.035 2.38761
12 0.045 2.38761 0.045 2.38761
13 0.035 2.38761 0.035 2.38761
14 0.035 2.38761 0.035 2.38761
15 0.030999 2.22725 0.030999 2.22725
16 0.030999 2.22725 0.030999 2.22725
17 0.045999 0.400014 0.045999 0.400014

Bond Coeffs # harmonic

1 222.5 1.53
2 222.5 1.538
3 222.5 1.538
4 365 1.502
5 365 1.502
6 428 1.42
7 309 1.111
8 309 1.111
9 309 1.111
10 309 1.111
11 309 1.111
12 309 1.111
13 309 1.111
14 360.5 1.1
15 360.5 1.1
16 545 0.96
17 440 1.34

Angle Coeffs # charmm

1 58.35 113.5 11.16 2.561
2 58.35 113.5 11.16 2.561
3 32 112.2 0 0
4 32 112.2 0 0
5 75.7 110 0 0
6 26.5 110.1 22.53 2.179
7 26.5 110.1 22.53 2.179
8 26.5 110.1 22.53 2.179
9 26.5 110.1 22.53 2.179
10 34.5 110.1 22.53 2.179
11 33.43 110.1 22.53 2.179
12 33.43 110.1 22.53 2.179
13 40 116 0 0
14 40 116 0 0
15 50 106 0 0
16 35.5 109 5.4 1.802
17 45 111.5 0 0
18 48 123.5 0 0
19 75.7 110 0 0
20 45 111.5 0 0
21 45 111.5 0 0
22 35.5 109 5.4 1.802
23 52 119.5 0 0
24 33.43 110.1 22.53 2.179
25 35.5 109 5.4 1.802
26 52 119.5 0 0
27 34.5 110.1 22.53 2.179
28 45.9 108.89 0 0
29 48 123.5 0 0
30 45 111.5 0 0
31 33.43 110.1 22.53 2.179

Dihedral Coeffs # charmmfsw

1 0.2 3 0 1
2 0.2 3 0 1
3 0.14 1 180 1
4 0.3 1 0 1
5 0.2 3 0 1
6 0.195 3 180 1
7 0.195 1 0 1
8 0.195 3 0 1
9 0.5 1 180 0
10 0.195 3 0 1
11 0.6 1 180 0
12 0.195 3 0 1
13 0.5 1 180 1
14 0.195 3 180 1
15 0.3 3 180 1
16 0 3 0 1
17 0.3 1 0 1
18 1 2 180 1
19 1 2 180 1
20 0.195 3 0 1
21 0.195 3 0 1
22 0.195 3 180 1
23 0 3 0 1
24 0.2 3 0 1
25 0.195 3 180 1
26 0.12 3 0 1
27 0 3 0 1
28 0.195 3 0 1
29 0.195 3 0 1
30 0.195 3 0 1
31 0 3 0 1
32 0.22 3 0 1
33 0.22 3 0 1
34 0 3 0 1
35 0.3 3 180 1
36 0.45 1 180 0
37 0 3 0 1
38 0.3 3 180 1
39 0.195 3 0 1
40 0.195 1 0 1
41 0.22 3 0 1
42 0.195 1 0 1
43 0.195 1 0 1
44 0.22 3 0 1
45 1 2 180 1
46 0.3 3 180 1
47 0.17 2 0 0
48 0.05 3 180 0
49 0.3 3 0 0
50 1.3 3 180 0
51 0.7 2 0 0
52 0.4 3 0 0
53 0.4 5 0 0
54 0.3 3 0 0
55 8.5 2 180 0

Atoms # full

2545 150 12 0.09 7.35648978181528 5.837142880292438 5.263489203330575 0 -1 1
2544 150 11 0.09 6.902640647012499 7.860054179666613 3.8685612817609485 0 -1 1
2346 138 17 0.42 10.61514595663225 6.728011785963472 6.244387410771326 0 1 2
2535 150 2 -0.206 6.448716920594837 7.746007535915673 4.89378781404066 0 -1 1
2536 150 3 0.149 7.30141223924162 6.834249370745073 5.798420696140857 0 -1 1
2534 150 1 -0.163 4.979401279220532 7.304046775102742 4.8864855066018755 0 -1 1
4708 277 16 0.15 7.426533502235346 14.520776352441993 9.509931477500409 1 1 1
2538 150 5 -0.153 5.34886445335889 6.723573324919718 7.359925982077895 0 -1 1
2537 150 4 -0.18 6.86049082952448 6.554176054722584 7.249734315332904 0 -1 1
722 43 8 0.09 7.979809845476493 8.215718503193049 10.270972898256339 -1 0 0
2333 138 4 -0.18 11.009339694925412 4.830753438574416 7.642702179394084 0 1 2
2547 150 14 0.09 7.144184376633767 5.563856363603839 7.447407903158074 0 -1 1
2332 138 3 0.149 11.97705653441557 5.499177686235303 6.634515559301602 0 1 2
4185 247 3 0.149 12.273317534538132 11.487696822046807 6.336008368835078 0 -1 0
2336 138 7 -0.649 11.59439727178257 6.77679674580499 6.246483517758314 0 1 2
1739 103 5 -0.153 3.100589848299449 4.690512987862766 11.359285019772228 0 0 0
2543 150 10 0.09 6.4588168186743475 8.785902047495386 5.341259383501205 0 -1 1
3895 230 2 -0.206 10.642602122863508 8.259205858588635 3.174208278616614 0 1 1
2540 150 7 -0.649 8.577030368360145 7.41908266716085 5.791254095094061 0 -1 1
2342 138 13 0.09 10.404467413882458 5.616319252932865 8.185478055819482 0 1 2
2550 150 17 0.42 8.400633605749572 8.228654302004891 6.307902491554992 0 -1 1
723 43 9 0.09 9.460804070850877 7.5667241232658995 9.846544718627335 -1 0 0
726 43 12 0.09 6.779867878474974 7.392951807825472 12.350327836564038 -1 0 0
725 43 11 0.09 7.724915711566312 5.710363204632982 10.756889421458908 -1 0 0
2546 150 13 0.09 7.42725098316562 7.161953612584828 7.969038269413834 0 -1 1
1749 103 15 0.15 4.029924219186077 4.169194229311853 11.563901272125001 0 0 0
4698 277 6 -0.148 7.746106232460636 13.489764393151646 9.217757985648856 1 1 1
2334 138 5 -0.153 9.848351422891195 4.096576810125726 7.057509668743525 0 1 2
1747 103 13 0.09 3.6047127134854406 4.760887799536399 9.22584208278963 0 0 0
2343 138 14 0.09 11.506104422182547 4.20136425033885 8.391962571676807 0 1 2
3903 230 10 0.09 10.412936843305943 7.355713720220057 3.7858008520619864 0 1 1
4193 247 11 0.09 11.81715544002199 12.90473407316701 4.7690010233440345 0 -1 0
2330 138 1 -0.163 10.795704686753027 4.183756073691006 4.800761312077311 0 1 2
2331 138 2 -0.206 12.188461267161355 4.513113319944533 5.389541037403912 0 1 2
2338 138 9 0.09 10.454192780356797 5.118325328826037 4.291654952637282 0 1 2
2220 131 10 0.09 6.6120488314321655 3.7350295076713333 10.2054998592718 1 1 0
2539 150 6 -0.148 4.596286773470332 7.050655492528771 6.303557589487447 0 -1 1
730 43 16 0.15 9.955204824800067 9.502111712259477 11.335595201674279 -1 0 0
3593 212 6 -0.148 6.180573803245739 15.522213350115445 6.34684213025389 -1 -1 0
2541 150 8 0.09 4.938667574463112 6.323126560392442 4.292723708659668 0 -1 1
1029 61 9 0.09 8.791497961286936 13.091206543879641 12.20498943719289 1 0 0
3592 212 5 -0.153 7.245063099294316 15.866974807757634 5.652116924275629 -1 -1 0
2549 150 16 0.15 3.503753035371443 6.92542910151496 6.357365462679638 0 -1 1
2335 138 6 -0.148 9.768736198248885 3.770296908607456 5.784000859460997 0 1 2
3904 230 11 0.09 10.242149573345221 9.118447134254428 3.7309432001394645 0 1 1
4706 277 14 0.09 5.925264312344394 10.72876160721113 8.6880385772253 1 1 1
2548 150 15 0.15 5.036302052747741 6.955490345343989 8.38218045890197 0 -1 1
249 15 11 0.09 5.675193316677921 12.414969019547682 12.407660358703925 -1 -1 0
2371 140 8 0.09 11.830509211458224 4.7292018038279755 11.28048634427424 0 1 0
3603 212 16 0.15 6.122856210336596 14.511269219287527 6.7142607207663465 -1 -1 0
2364 140 1 -0.163 11.681272633784912 3.8420428218289002 11.92729840766791 0 1 0
4705 277 13 0.09 7.230831472905067 10.362819672664656 9.87364712903199 1 1 1
720 43 6 -0.148 9.461265933887057 8.583881955514883 11.807985447414616 -1 0 0
715 43 1 -0.163 8.857955239382832 7.68090607492686 10.770648653601192 -1 0 0
3061 181 1 -0.163 12.125954162592791 13.82120362123582 10.21308598477362 -1 0 1
2282 135 4 -0.18 3.0551780581367636 12.767386046898443 7.6403531296881555 0 0 -1
4693 277 1 -0.163 8.719999516579083 13.3167981987167 8.146416355851136 1 1 1
2542 150 9 0.09 4.466538112748038 8.01763553387514 4.243682273445181 0 -1 1
2337 138 8 0.09 10.8670503860895 3.4089567286408764 3.969755153662285 0 1 2
2344 138 15 0.15 8.997162019680953 3.9138100540809226 7.776063233455394 0 1 2
243 15 5 -0.153 4.262689335084781 9.37899260868832 11.684720463898202 -1 -1 0
253 15 15 0.15 4.654525027261303 8.526216133030715 11.047701539442825 -1 -1 0
2217 131 7 -0.649 8.421589358224224 3.249098548774092 11.904534126105089 1 1 0
2372 140 9 0.09 10.87015140051726 3.1287637609512604 11.5240633083534 0 1 0
1709 101 9 0.09 9.42761349125567 11.200090823106146 3.6721129422066014 1 0 0
4702 277 10 0.09 9.667198156512214 11.463693904422136 8.98052407182158 1 1 1
4697 277 5 -0.153 6.922312735649999 12.521565897617931 9.602234866054395 1 1 1
716 43 2 -0.206 8.429808184015952 6.383810228014882 11.345631800316806 -1 0 0
2227 131 17 0.42 7.829323009239383 4.017293719376573 12.202109007201543 1 1 0
1708 101 8 0.09 9.178360026428521 12.643596479468297 4.698816347718058 1 0 0
252 15 14 0.09 6.192102856472216 9.453453515224334 12.585452905391987 -1 -1 0
2283 135 5 -0.153 3.269359060484585 11.453729601494185 6.820519267478957 0 0 -1
4695 277 3 0.149 7.907111839363165 10.940784882951938 7.877990874260357 1 1 1
2293 135 15 0.15 3.8433025936968623 10.593786000794674 7.199540802110317 0 0 -1
244 15 6 -0.148 3.603317998156729 10.409486566651243 11.211972596227707 -1 -1 0
4199 247 17 0.42 12.228403884718137 9.839353402215824 5.2861422893811625 0 -1 0
724 43 10 0.09 9.33309245788109 5.778142798065225 11.640593738402286 -1 0 0
4189 247 7 -0.649 11.542256296208338 10.521397556807187 5.607629850946038 0 -1 0
2292 135 14 0.09 3.9586544696333528 13.28893693872864 7.702229879947165 0 0 -1
1706 101 6 -0.148 7.448856829590175 12.112750261123152 3.6523134318161254 1 0 0
4194 247 12 0.09 11.670699068383689 12.028447893198802 7.094039764728847 0 -1 0
4696 277 4 -0.18 6.950245040907115 11.071351421042031 9.044654509235631 1 1 1
3910 230 17 0.42 12.51186556004115 7.671297716954916 4.650338868685945 0 1 1
3066 181 6 -0.148 12.23923372393816 12.327350011273992 10.359988343874704 -1 0 1
1701 101 1 -0.163 8.89008990013669 12.213263286108596 3.7121625928512327 1 0 0
4703 277 11 0.09 9.72949772828106 11.65440646796551 7.166911843424981 1 1 1
3602 212 15 0.15 8.126706786568107 15.240036729187002 5.820821471451726 -1 -1 0
1716 101 16 0.15 6.9482524437043525 11.476470598423058 4.375569171200495 1 0 0
2560 151 10 0.09 3.6784061112367414 15.659376404444302 11.786262259475976 1 -1 0
3076 181 16 0.15 11.547916241938493 11.751249940660635 9.725942879822226 -1 0 1
4694 277 2 -0.206 9.04355860304385 11.828028132509775 8.06264738605173 1 1 1
4700 277 8 0.09 8.437249776494694 13.855057873362517 7.249214877302649 1 1 1
4704 277 12 0.09 7.359267700777954 11.186766238445653 6.936635960054276 1 1 1
239 15 1 -0.163 3.7289240791126375 11.80229832480826 11.752015947983567 -1 -1 0
4701 277 9 0.09 9.65237191321106 13.88654967587177 8.507430350763126 1 1 1
246 15 8 0.09 3.8368647293369618 12.485168804940082 10.952504435455895 -1 -1 0
717 43 3 0.149 7.5773669784747195 6.621663711555838 12.665874268914617 -1 0 0
4709 277 17 0.42 9.042334066225074 9.495606290934251 8.243907304449431 1 1 1
3068 181 8 0.09 12.141527619543599 14.086933547673972 9.151168194167418 -1 0 1
858 51 8 0.09 12.306620067864431 15.71724683975469 3.814757024143753 0 -1 0
4699 277 7 -0.649 8.226409751225798 9.560668916713766 7.725664394052641 1 1 1
3069 181 9 0.09 11.141398694925943 14.147618566869497 10.664061046328921 -1 0 1
4707 277 15 0.15 6.10076458658311 12.848266306004298 10.223106524142846 1 1 1
1031 61 11 0.09 10.44575998448516 11.3842302157131 12.729556348386337 1 0 0
254 15 16 0.15 3.2583701385795516 10.464343681970753 10.150422199338832 -1 -1 0
4184 247 2 -0.206 12.734852494555485 12.518792899416558 5.256072620341197 0 -1 0
1284 76 9 0.09 8.48195951314979 4.455822749085906 3.2170732147672374 0 1 1
2353 139 7 -0.649 12.34772817322842 8.299667428273228 17.29509903425337 0 0 0
2893 171 3 0.149 10.62594237355951 5.516834608718069 18.327347480925187 1 1 -1
2907 171 17 0.42 12.106848943780056 6.676886221022773 17.918567599415592 1 1 -1
2902 171 12 0.09 10.032371579007922 6.305197129305987 18.918859685806336 1 1 -1
2897 171 7 -0.649 12.033301652904518 5.794719162989811 18.371347214446235 1 1 -1
5182 305 14 0.09 9.251091512888248 7.1835370284306705 21.003640919538967 1 0 0
2894 171 4 -0.18 10.200234743887185 5.57049400823594 16.80026197604163 1 1 -1
5495 324 4 -0.18 7.494104332377244 8.392803920060878 18.455297956240457 1 1 -1
2904 171 14 0.09 9.80905633906314 6.56346529514917 16.5988566134632 1 1 -1
2026 120 3 0.149 4.777196384681432 5.064818878262823 15.749219242298294 1 0 0
2030 120 7 -0.649 4.666564194756624 5.978326875981113 14.689174673306816 1 0 0
2037 120 14 0.09 6.5571597661719 5.81252635137329 16.645559708141203 1 0 0
2027 120 4 -0.18 5.499852849281272 5.810963994921945 16.91609469393749 1 0 0
728 43 14 0.09 7.880545100364056 7.765640194415166 14.444164217517669 -1 0 0
718 43 4 -0.18 8.475630483564977 7.235853378100487 13.709808979510512 -1 0 0
731 43 17 0.42 6.285949296881331 5.635871944166927 13.718905335200558 -1 0 0
727 43 13 0.09 9.118099746153904 6.512991149314901 14.170483167035718 -1 0 0
2028 120 5 -0.153 5.276364729003923 5.407162537624107 18.327375598279694 1 0 0
2036 120 13 0.09 5.194619604884356 6.807599936714146 16.871888114140077 1 0 0
2038 120 15 0.15 5.421394449540351 6.091532510939856 19.183038333620136 1 0 0
2035 120 12 0.09 5.505389393277296 4.311607475966012 15.381796647764496 1 0 0
4104 242 7 -0.649 7.349261672503171 12.307311687737005 21.393098886981072 1 1 0
2040 120 17 0.42 4.122331197433877 6.73904209797452 14.97676643560076 1 0 0
2363 139 17 0.42 12.360979953545892 9.077208333681435 17.809783728839957 0 0 0
1041 62 4 -0.18 8.450386612702623 15.718803155787517 19.90628806953264 0 -1 1
2892 171 2 -0.206 10.522875834808282 4.093888959035711 18.917780255087102 1 1 -1
5504 324 13 0.09 7.701797524993283 7.834756799335453 19.356445625100456 1 1 -1
5506 324 15 0.15 5.230823742248045 8.268222226524053 18.472484675204353 1 1 -1
2903 171 13 0.09 11.157011306612269 5.381527973101335 16.16768382496022 1 1 -1
5493 324 2 -0.206 8.008874412248748 10.663056333032209 17.335241374378484 1 1 -1
2358 139 12 0.09 12.100613290905985 9.421391165719296 15.58852223165943 0 0 0
2039 120 16 0.15 4.107510844430365 4.232729803437819 19.637656301419106 1 0 0
719 43 5 -0.153 9.264575344876953 8.382903078312516 13.105261148746271 -1 0 0
729 43 15 0.15 9.8128597254732 8.999701308837906 13.779699725857455 -1 0 0
5505 324 14 0.09 7.614212532653677 7.805546248629733 17.503216167169818 1 1 -1
721 43 7 -0.649 7.013346200781507 5.389311706346266 13.104122329684309 -1 0 0
1649 97 17 0.42 3.153328230340896 8.876087919649432 16.10112026788544 0 1 1
2895 171 5 -0.153 9.166994457907567 4.560559258195666 16.473482226715227 1 1 -1
2905 171 15 0.15 8.853771491780709 4.584306891320275 15.471410399879888 1 1 -1
4892 288 13 0.09 11.410412319912082 8.307812147172944 20.540480021166793 1 0 0
4883 288 4 -0.18 12.009188340942288 8.92790114803568 21.185116647436033 1 0 0
2891 171 1 -0.163 9.095391332681562 3.532778595153891 18.700254166147815 1 1 -1
2557 151 7 -0.649 5.655496097583066 15.336649665189322 13.518956676929186 1 -1 0
2906 171 16 0.15 7.76872635822413 3.0740014289727022 16.982738190730267 1 1 -1
4100 242 3 0.149 6.064270240965172 12.796243987729133 21.89799893491388 1 1 0
5508 324 17 0.42 8.161692195087076 10.094406987627103 19.92845311853543 1 1 -1
1037 61 17 0.42 12.469028676595894 12.704627768885038 14.124933576549099 1 0 0
5172 305 4 -0.18 8.900205461823113 6.788113067896956 21.921712194764464 1 0 0
2365 140 2 -0.206 11.346341834937784 4.28199711220652 13.402516901381206 0 1 0
5183 305 15 0.15 7.7353255674990855 4.874858966702691 21.289588441010192 1 0 0
2901 171 11 0.09 10.765501457534395 3.9921512941287354 20.021490916191745 1 1 -1
5496 324 5 -0.153 6.0842606550651155 8.981132152490716 18.587521106947275 1 1 -1
1042 62 5 -0.153 9.492539430212263 14.621900298341043 19.813042211387963 0 -1 1
2357 139 11 0.09 11.89499798356428 7.076771943249544 14.901377156388142 0 0 0
3445 203 11 0.09 11.032922051314374 11.467031132987666 22.219915626153526 1 0 0
5507 324 16 0.15 4.683599332018802 10.564042869050525 18.70551497452793 1 1 -1
5497 324 6 -0.148 5.7047409446575905 10.233524004334175 18.430315875717653 1 1 -1
4114 242 17 0.42 7.987510857700851 12.310957511795452 22.13671740602279 1 1 0
255 15 17 0.42 3.2683743828579734 10.51484660849066 13.975783944553436 -1 -1 0
5173 305 5 -0.153 7.644052479975293 5.924322838132037 21.55832528025539 1 0 0
2373 140 10 0.09 10.424412612795162 4.84539520430501 13.370716911471524 0 1 0
241 15 3 0.149 5.036149613997344 10.792975471621533 13.745174962136758 -1 -1 0
4112 242 15 0.15 3.2618973555009196 13.635414202931376 19.631945689499215 1 1 0
245 15 7 -0.649 3.958466907919682 10.703858738934821 14.631244145730156 -1 -1 0
4886 288 7 -0.649 12.160100632239244 10.391311605707163 19.206066380801943 1 0 0
251 15 13 0.09 5.127138639029348 8.6556371645828 13.685169467224135 -1 -1 0
5430 320 7 -0.649 3.5856220753338244 13.677532273858871 16.190883348149896 1 1 0
248 15 10 0.09 4.346030265533322 12.823942093139538 13.55882858916569 -1 -1 0
5440 320 17 0.42 3.849324620953903 12.783302566084929 15.871848119961767 1 1 0
2029 120 6 -0.148 4.486677150151284 4.35231798816574 18.606433703006168 1 0 0
5503 324 12 0.09 9.482954693586931 9.041994050310493 17.855094181928443 1 1 -1
5494 324 3 0.149 8.588183680419363 9.508416044667708 18.313395514814676 1 1 -1
1050 62 13 0.09 8.044362695579407 15.750109095110036 18.893015052889965 0 -1 1
5501 324 10 0.09 8.784297202226313 11.416370041129253 17.28057444534414 1 1 -1
1022 61 2 -0.206 10.359255126008726 12.293449724591873 13.327342107866771 1 0 0
1032 61 12 0.09 10.620739709349088 11.004303256774662 15.14996702949965 1 0 0
4102 242 5 -0.153 3.766738740352109 13.299886934990182 20.580761926905154 1 1 0
2900 171 10 0.09 11.245440945098714 3.4294297524576898 18.34687683378177 1 1 -1
5179 305 11 0.09 6.877108492343775 9.17008137205773 21.784499193459297 1 0 0
4893 288 14 0.09 11.398730777532261 9.580536919880327 21.7944528567078 1 0 0
5498 324 7 -0.649 9.007318663703227 9.991911709285773 19.591031275798382 1 1 -1
1021 61 1 -0.163 8.910336463492701 12.741415328564752 13.217147129133552 1 0 0
2374 140 11 0.09 12.137421611238974 5.002473504821679 13.738387952046397 0 1 0
5500 324 9 0.09 7.007043440041103 11.83319066872381 18.74018066652988 1 1 -1
5184 305 16 0.15 5.632289455695864 5.428121119090932 22.01373133946663 1 0 0
1028 61 8 0.09 8.347518191295581 11.8538081057662 13.492179628172194 1 0 0
240 15 2 -0.206 4.757917354368946 12.079015948076508 12.869673655288489 -1 -1 0
4896 288 17 0.42 11.180734843483155 10.337919855878397 19.443043112427475 1 0 0
1036 61 16 0.15 8.340303154569 14.760880903417076 13.79609505174306 1 0 0
4111 242 14 0.09 5.340376685991139 14.729151248684852 21.119448294528684 1 1 0
1034 61 14 0.09 10.295464729524237 12.530972257761679 16.74733061612238 1 0 0
4103 242 6 -0.148 3.138009215758022 12.450351314161084 21.401035950516068 1 1 0
242 15 4 -0.18 5.141025801119421 9.518064268038609 12.962426134977607 -1 -1 0
1053 62 16 0.15 11.447009200563304 13.990071916166356 20.40166148939444 0 -1 1
5502 324 11 0.09 7.698516405899317 10.21028257022654 16.36981946139167 1 1 -1
2354 139 8 0.09 12.683310601466536 8.046088584674497 13.134169476203132 0 0 0
1023 61 3 0.149 10.866231106733917 12.00600109777761 14.721771385810843 1 0 0
1043 62 6 -0.148 10.80071545913301 14.740373735649854 19.98690831361231 0 -1 1
4101 242 4 -0.18 5.21962014574302 13.616185344140561 20.849090618565583 1 1 0
1052 62 15 0.15 9.01730961425178 13.679128467711369 19.675017369739724 0 -1 1
1445 85 17 0.42 4.187352766159781 15.329261095118728 16.795126542731218 0 0 0
250 15 12 0.09 5.96753644285733 10.904827452187185 14.331889713148055 -1 -1 0
5492 324 1 -0.163 6.668463472878481 11.248851482234285 17.90070605811031 1 1 -1
4099 242 2 -0.206 5.2785353602170595 11.526392987914683 22.306265719234613 1 1 0
5174 305 6 -0.148 6.3823224602965665 6.2859244240045555 21.831433777287256 1 0 0
4110 242 13 0.09 5.662895395804035 13.446261628146837 19.84482715871405 1 1 0
1035 61 15 0.15 9.3043433542944 14.75672545922934 15.984026101280925 1 0 0
5499 324 8 0.09 6.155064594265114 11.90340405169518 17.205031283656474 1 1 -1
1025 61 5 -0.153 9.356617889149792 13.904937404229498 15.351543527457407 1 0 0
1026 61 6 -0.148 8.630111248135538 13.797988313606407 14.273617613328405 1 0 0
1024 61 4 -0.18 10.45384892560013 13.0641538897823 15.806993318097213 1 0 0
1033 61 13 0.09 11.342828340070785 13.728879233034805 15.894963495783973 1 0 0
1027 61 7 -0.649 12.299251124711205 11.912092533339868 14.639292783468422 1 0 0
2366 140 3 0.149 11.375265668780392 3.0973019838108127 14.35828354503644 0 1 0
1051 62 14 0.09 7.7544851709890255 15.344911676899324 20.711848075200862 0 -1 1
3085 182 8 0.09 3.2417019937932765 6.560275310917701 20.197295273220554 1 1 1
2025 120 2 -0.206 3.4786562358484403 4.492395676465118 16.166779205123838 1 0 0
5176 305 8 0.09 4.998467706524323 7.914847653558985 22.411805334777558 1 0 0
2898 171 8 0.09 8.366171802935737 3.874625566919443 19.48264863650773 1 1 -1
4107 242 10 0.09 5.454313181268563 10.747634271832336 21.58378618030501 1 1 0
1030 61 10 0.09 11.018143550683996 13.133815466552432 12.906132504129765 1 0 0
2375 140 12 0.09 11.129221302450869 3.396100484327359 15.416118832053224 0 1 0
2896 171 6 -0.148 8.640773950387128 3.640391946911775 17.245749784243213 1 1 -1
2567 151 17 0.42 5.359519746150206 15.303854304460831 14.445934853672611 1 -1 0
2024 120 1 -0.163 3.5978422790085243 3.6978190285072756 17.54308790014458 1 0 0
5181 305 13 0.09 9.716062806462876 6.227446469766276 22.1840508433708 1 0 0
1764 104 13 0.09 12.732831506022194 15.777298857760492 16.72796993994468 0 -1 0
1045 62 8 0.09 11.704326337955905 16.0089096149212 21.394262486047 0 -1 1
3442 203 8 0.09 12.631243899086572 13.159620917110592 22.07351793931919 1 0 0
1438 85 10 0.09 3.101065917640996 15.944267074124225 18.6567279788513 0 0 0
214 13 10 0.09 4.127184622937401 6.879790468585733 30.107179586069396 0 0 1
4445 262 8 0.09 7.656217351441635 6.073944191750212 29.269440724506214 0 0 0
4438 262 1 -0.163 7.918173038984092 5.094653779852107 29.74331155177447 0 0 0
5177 305 9 0.09 5.872720259346738 7.160780925589886 23.72684199864042 1 0 0
765 45 17 0.42 8.947249543417282 9.106264596159507 24.989184643785553 0 2 -1
761 45 13 0.09 9.178548262300552 7.953357897654976 27.124516077939976 0 2 -1
753 45 5 -0.153 8.80234112151306 8.900586111783042 29.025842788574142 0 2 -1
752 45 4 -0.18 8.505857140305185 8.703588886627486 27.598042865821167 0 2 -1
763 45 15 0.15 9.015757293348685 7.964700523645512 29.53951866800938 0 2 -1
762 45 14 0.09 7.4510878460779475 8.203681042487386 27.652008858288582 0 2 -1
599 36 4 -0.18 4.409723529023348 4.909726715106943 25.400933113303505 0 1 -1
4448 262 11 0.09 5.902763131399981 4.7918183575625175 30.55865704481316 0 0 0
602 36 7 -0.649 6.753758987809764 4.7335385222481445 24.59155625062172 0 1 -1
607 36 12 0.09 6.182786179938618 5.008826010390799 26.56978987519559 0 1 -1
598 36 3 0.149 5.945933670708262 4.422471228243737 25.7182844337705 0 1 -1
5175 305 7 -0.649 8.64639522109016 7.562787201567356 24.07549949210513 1 0 0
509 30 16 0.15 11.283535499390043 8.754819551522285 27.728936344707506 0 0 -1
212 13 8 0.09 5.846738804763147 8.729151428672889 29.35810166688477 0 0 1
4447 262 10 0.09 7.112870698346982 3.54538737391508 31.02327860207466 0 0 0
609 36 14 0.09 4.504927698799145 6.046615773578751 25.50909421208892 0 1 -1
1362 81 2 -0.206 6.777163984961909 15.466826864403409 27.93872398013927 2 0 0
5171 305 3 0.149 8.52947501395401 8.018063955119533 22.746321615101174 1 0 0
4439 262 2 -0.206 6.9322620162369315 4.636488062912075 30.83395158763715 0 0 0
4443 262 6 -0.148 9.395448968561851 5.070088320444811 30.26537206817701 0 0 0
4446 262 9 0.09 7.869442383585147 4.419013531320134 28.862060510732757 0 0 0
612 36 17 0.42 6.619710203129037 3.9146122772029033 24.075391110689814 0 1 -1
4106 242 9 0.09 3.277723159457377 10.908549300369682 22.95504295642535 1 1 0
213 13 9 0.09 4.29235722934307 9.04712015171232 30.19041910077879 0 0 1
5269 310 16 0.15 10.071167312288502 3.616989990916519 26.666687850992552 1 1 0
5185 305 17 0.42 8.215996475405632 6.724598770315556 23.87594536164057 1 0 0
205 13 1 -0.163 4.731751052528139 8.737637594781422 29.181848138648427 0 0 1
608 36 13 0.09 4.1589153423567184 4.727919676656142 24.39627183214072 0 1 -1
4453 262 16 0.15 10.233169208841986 4.8977856172249945 29.577629097162063 0 0 0
5263 310 10 0.09 11.0901114237638 4.499846881892769 22.602088267445215 1 1 0
600 36 5 -0.153 3.3440199759763214 4.318985706324842 26.38267483145454 0 1 -1
220 13 16 0.15 4.973917653214379 10.551995311745095 27.99715940060009 0 0 1
210 13 6 -0.148 4.316441193800412 9.706384061191299 28.141645843542058 0 0 1
5178 305 10 0.09 6.874846272985398 9.34041275710807 23.520159650230205 1 0 0
209 13 5 -0.153 3.437382783873046 9.451303957185544 27.17569847358758 0 0 1
5259 310 6 -0.148 10.932193523152222 3.695162155314942 25.961495231547424 1 1 0
1139 67 17 0.42 5.886963803884285 15.759689599500826 31.729355360421774 -1 0 -1
1361 81 1 -0.163 7.375973240346525 15.57026984539813 26.435987730111453 2 0 0
5045 297 13 0.09 11.313834648890559 8.58932478194691 31.0794164003094 1 0 -1
5254 310 1 -0.163 10.626902366521122 4.4703962996702655 24.664433832292172 1 1 0
4894 288 15 0.15 12.367287593701228 7.22586143157675 22.599967321808567 1 0 0
4452 262 15 0.15 10.83446331311254 4.846470772134088 31.77398244265211 0 0 0
601 36 6 -0.148 3.7256387883534705 3.3487466875402667 27.2641099258737 0 1 -1
1363 81 3 0.149 5.298738466824103 15.127998316399248 28.039202342897614 2 0 0
1371 81 11 0.09 7.365433097256595 14.812745249835487 28.65357853786445 2 0 0
764 45 16 0.15 9.051499586391799 10.130089077293476 30.709327064416488 0 2 -1
5262 310 9 0.09 10.886975485204182 5.565776688986304 24.70156018501723 1 1 0
1953 115 15 0.15 3.461338977973777 9.793242311330943 32.21844495448056 1 -1 0
754 45 6 -0.148 8.765811470514324 10.107720161537667 29.642334559736714 0 2 -1
498 30 5 -0.153 12.383513869313425 7.217942216433193 28.687049018935532 0 0 -1
5261 310 8 0.09 9.511478961348967 4.485824812134192 24.49425894088589 1 1 0
1372 81 12 0.09 4.994446937459788 14.91965376645778 29.07870964990273 2 0 0
499 30 6 -0.148 12.210266963159022 8.119841530580093 27.681883034460228 0 0 -1
3449 203 15 0.15 12.38596579918695 14.467961217339615 26.051341400209356 1 0 0
1945 115 7 -0.649 5.095074296967849 14.054261276938224 31.95221986458051 1 -1 0
3439 203 5 -0.153 11.991210801106911 13.885823076252017 25.15021267399813 1 0 0
4442 262 5 -0.153 9.746662902142482 5.060594944426359 31.54653794738051 0 0 0
2604 154 3 0.149 12.366088809273355 14.477605040184981 29.782487670214486 0 0 0
3448 203 14 0.09 9.904659379527697 14.467215318954759 25.032923603158512 1 0 0
5255 310 2 -0.206 11.276644507822512 3.8031756017279275 23.469348996274476 1 1 0
2618 154 17 0.42 10.839762545981198 15.588828865139385 29.777257216283886 0 0 0
5170 305 2 -0.206 7.075776103990129 8.575038473200046 22.693703372618458 1 0 0
3435 203 1 -0.163 12.697121716217 12.59974282564296 23.0652737466642 1 0 0
1366 81 6 -0.148 7.023705899062648 14.284278999013551 25.735161643159376 2 0 0
2606 154 5 -0.153 12.64233692116785 12.116041924616223 28.9969431921338 0 0 0
1376 81 16 0.15 7.859690453925548 13.822397511519204 25.273281629912226 2 0 0
219 13 15 0.15 3.2072703902359336 10.31651106624697 26.53027296969959 0 0 1
2613 154 12 0.09 12.21803759483794 14.403188453407184 30.91499010103755 0 0 0
1955 115 17 0.42 4.126346547250401 14.336051290644471 32.01601097339286 1 -1 0
1375 81 15 0.15 5.831819575734611 12.552062836745494 25.55533565044027 2 0 0
749 45 1 -0.163 8.292183576217194 11.326546007415631 28.846711460311695 0 2 -1
3444 203 10 0.09 11.306446208478867 11.138713360032437 23.995254803663038 1 0 0
1365 81 5 -0.153 5.924545896066558 13.52630722950023 26.045450459041945 2 0 0
756 45 8 0.09 7.1989639864336645 11.24462916350805 28.873522687779985 0 2 -1
1373 81 13 0.09 3.8911312749151117 13.887654682595848 26.792396741255693 2 0 0
4105 242 8 0.09 3.8383527071256593 12.653884145123389 23.389607296982067 1 1 0
760 45 12 0.09 7.313459893262598 10.114870566874988 26.44844016058317 0 2 -1
4108 242 11 0.09 5.732750384259893 11.125840883044704 23.20573850513861 1 1 0
758 45 10 0.09 9.997363232961895 11.290261351355708 27.370686608956568 0 2 -1
5169 305 1 -0.163 5.999528260498827 7.467817804827671 22.643723016709856 1 0 0
4440 262 3 0.149 7.271659786167261 5.340136452304886 32.15903893063225 0 0 0
3438 203 4 -0.18 10.559997360385822 13.57550556348303 24.96882870130308 1 0 0
508 30 15 0.15 11.522043943123434 6.925384480167386 29.28021651452019 0 0 -1
2614 154 13 0.09 11.246057195632803 13.55856733278475 28.115495019723387 0 0 0
4098 242 1 -0.163 3.7756267180937977 11.856780564138633 22.597255985873304 1 1 0
2608 154 7 -0.649 11.733011485638123 15.696136193129936 29.468349613047064 0 0 0
3436 203 2 -0.206 11.289162931984736 11.950658344966161 23.203713196144882 1 0 0
5567 328 8 0.09 5.080664829027697 15.751055772223683 23.4141371058651 1 1 0
1374 81 14 0.09 4.968280862886037 12.982362759342921 27.912902359978773 2 0 0
3447 203 13 0.09 10.251299264101439 12.918404841976686 25.817930338140886 1 0 0
3441 203 7 -0.649 8.933838251455246 12.246897494984681 23.718825798884577 1 0 0
2615 154 14 0.09 10.769900989074504 13.014768079911557 29.7732871510638 0 0 0
759 45 11 0.09 8.375808671056582 12.122192653805563 26.89367384934064 0 2 -1
751 45 3 0.149 8.404528627432839 9.980126757394466 26.728035405649877 0 2 -1
2616 154 15 0.15 12.276019364314788 11.13553685294262 28.70756489070688 0 0 0
3446 203 12 0.09 10.02746444292248 13.685925401727628 22.826342092069495 1 0 0
755 45 7 -0.649 9.182529773315006 9.910879850303282 25.53386605277331 0 2 -1
1951 115 13 0.09 3.503854053682996 12.035568781630618 31.383064453040888 1 -1 0
3437 203 3 0.149 10.245691387722944 12.911082162446673 23.633061006047058 1 0 0
215 13 11 0.09 4.96747757824545 6.829638599994116 28.44279034144045 0 0 1
2605 154 4 -0.18 11.663081112196197 13.290939322426194 29.14656459471715 0 0 0
3451 203 17 0.42 9.108338544611975 11.520230577695054 24.326233496077776 1 0 0
4109 242 12 0.09 6.219890595486477 13.442038508602781 22.802580368021456 1 1 0
757 45 9 0.09 8.661160148720647 12.256516256705618 29.426447619296233 0 2 -1
1948 115 10 0.09 6.661441794128216 12.072031486658487 31.613516042752643 1 -1 0
218 13 14 0.09 3.1267778802194974 7.470098302258696 26.321135755373817 0 0 1