LAMMPS data file via write_data, version 29 Aug 2024, timestep = 1000000, units = real

5103 atoms
7 atom types
4374 bonds
6 bond types
5832 angles
8 angle types
7290 dihedrals
10 dihedral types

1.6756628557475963 38.32433714424119 xlo xhi
1.6756628557475963 38.32433714424119 ylo yhi
1.6756628557475963 38.32433714424119 zlo zhi

Masses

1 15.999
2 12.011
3 15.999
4 1.008
5 1.008
6 1.008
7 1.008

Pair Coeffs # lj/charmmfsw/coul/long

1 0.192101 3.14487 0.192101 3.14487
2 0.055999 3.58141 0.01 3.38542
3 0.192101 3.14487 0.192101 3.14487
4 0.045999 0.400014 0.045999 0.400014
5 0.035 2.38761 0.035 2.38761
6 0.035 2.38761 0.035 2.38761
7 0.045999 0.400014 0.045999 0.400014

Bond Coeffs # harmonic

1 428 1.42
2 428 1.42
3 545 0.96
4 309 1.111
5 309 1.111
6 545 0.96

Angle Coeffs # charmm

1 100.5 117.15 0 0
2 50 106 0 0
3 45.9 108.89 0 0
4 45.9 108.89 0 0
5 50 106 0 0
6 35.5 109 5.4 1.802
7 45.9 108.89 0 0
8 45.9 108.89 0 0

Dihedral Coeffs # charmmfsw

1 1.83 1 0 1
2 1.83 1 0 1
3 0.18 3 0 1
4 0.18 3 0 1
5 0.18 3 0 1
6 0.18 3 0 1
7 1.05 2 0 0
8 0.28 3 0 0
9 1.05 2 0 0
10 0.28 3 0 0

Atoms # full

2184 312 7 0.419 5.2421060598057725 2.3623971045021834 6.6041714245013905 0 -1 0
101 15 3 -0.65 3.2795715597025903 5.010540643981255 8.359729706681268 -1 0 0
3401 486 6 0.09 4.193402205715408 7.492312980202157 3.8972959848504036 1 0 2
1646 236 1 -0.65 2.756448801712386 10.453853039137837 8.1432810111816 0 1 0
3399 486 4 0.419 3.2661390219793995 4.896675294874697 3.478940158702237 1 0 2
3397 486 2 0.282 3.5743904324839324 6.756208319132333 3.426583521775614 1 0 2
2702 386 7 0.419 5.084547245937796 7.536286856141141 8.608396479790617 1 1 1
99 15 1 -0.65 4.325748522239841 6.495232023923757 6.817447975952568 -1 0 0
105 15 7 0.419 3.74161047900415 4.283789232164637 7.998210092418264 -1 0 0
3836 548 7 0.419 2.994356160428206 9.965603338134244 6.322630420150241 1 1 2
4354 622 7 0.419 4.547462062780437 10.819186602097975 4.957076100366401 0 -1 0
3402 486 7 0.419 2.1155598188585474 7.459081766373397 4.523375445698674 1 0 2
2697 386 2 0.282 5.5322031514258825 6.904480191300073 10.3333642623273 1 1 1
132 19 6 0.09 5.679431260022887 1.955180128087717 2.370671581847513 1 0 -1
3400 486 5 0.09 3.741248412440507 6.763274610888559 2.275989654900145 1 0 2
1103 158 4 0.419 3.187638904903424 2.5570976027692205 2.4923479925435315 0 1 1
1100 158 1 -0.65 2.725154199313262 3.44878602912212 2.5508428203484828 0 1 1
3552 508 3 -0.65 3.3461836095774142 9.692515578304949 10.604458948335013 1 1 1
2699 386 4 0.419 3.926353805533913 6.389773119536983 9.704027718858432 1 1 1
2180 312 3 -0.65 4.7962457858291705 2.385978551637557 7.384521261779901 0 -1 0
103 15 5 0.09 2.640986174472958 5.329745390351606 6.395384000873584 -1 0 0
3396 486 1 -0.65 3.992562155696503 5.482122106747037 3.7409676205182874 1 0 2
4348 622 1 -0.65 5.973041635955436 9.58821208484197 3.1353708013934996 0 -1 0
104 15 6 0.09 2.392161817148206 6.782093397631038 7.504727776949032 -1 0 0
2698 386 3 -0.65 5.697444349025087 7.790004134895347 9.254797369211442 1 1 1
616 88 7 0.419 1.8392456863558324 5.217316709967392 10.13974735775889 0 -1 2
1102 158 3 -0.65 1.9024838091798568 3.1829292264288993 4.6924314468117965 0 1 1
100 15 2 0.282 3.1141742926333054 5.933909392284054 7.248396161268923 -1 0 0
3832 548 3 -0.65 3.0753220030874635 9.556628154596016 5.4404452502926635 1 1 2
102 15 4 0.419 4.395749035328507 6.218563898860359 5.891427717789578 -1 0 0
2696 386 1 -0.65 4.155021304567375 6.809643422972519 10.552174191966564 1 1 1
3398 486 3 -0.65 2.211160236743031 6.969915162968151 3.757315829963697 1 0 2
1649 236 4 0.419 3.2334976391454604 10.158432314366543 8.934237804237995 0 1 0
3831 548 2 0.282 1.9019787360924316 10.126328193461243 4.873091996247649 1 1 2
4353 622 6 0.09 5.659930267347408 9.065955714176138 5.150748562513895 0 -1 0
2700 386 5 0.09 6.0730214577502935 5.968609692493069 10.202886516450107 1 1 1
4349 622 2 0.282 6.029826971770017 9.866257794065785 4.521170396659017 0 -1 0
1365 195 7 0.419 4.399868074204564 9.658337803059595 2.2150518862301047 -1 0 0
4381 626 6 0.09 6.036680554183999 10.68383517656527 10.5526993521757 0 2 1
3556 508 7 0.419 3.79495012942848 8.867696889877703 10.632794062257402 1 1 1
3834 548 5 0.09 1.868041131414577 9.662048411646014 3.8574300931857963 1 1 2
4204 601 4 0.419 1.9424964551653292 1.6858777371223397 5.87812463753805 1 0 0
2567 367 5 0.09 2.6928151000563814 8.034069895441938 17.82419112669318 0 1 0
2098 300 5 0.09 5.991767377270211 5.855060651859806 18.662769758929567 0 1 -1
4448 636 3 -0.65 4.789737637626719 4.939467464030658 12.905119628967022 1 1 0
1860 266 5 0.09 5.837191719618518 7.203110001025656 14.40846148368203 1 -2 1
3114 445 6 0.09 4.7884703915284055 2.9815388060352275 19.22658660395917 0 0 0
2701 386 6 0.09 5.991586852087025 7.525965609211759 11.179544765731533 1 1 1
3046 436 1 -0.65 1.7886781624419563 8.447782209684936 15.004429307127413 0 -1 2
4451 636 6 0.09 2.9372552186598586 5.369068540500281 13.605524993031596 1 1 0
3551 508 2 0.282 2.520459503084821 9.60765532701401 11.727024299000554 1 1 1
3110 445 2 0.282 4.014426513807864 3.5798297881703713 18.68676469374731 0 0 0
2223 318 4 0.419 5.050557446250092 2.8499429198075807 11.609928535382586 -1 1 1
3049 436 4 0.419 2.6683890699959054 8.284446552490826 15.431413606499301 0 -1 2
2220 318 1 -0.65 4.940596964544308 2.211295381296293 10.897564865141321 -1 1 1
4450 636 5 0.09 4.233026908465291 5.135128971397059 14.86350966281963 1 1 0
1861 266 6 0.09 4.434872149388594 8.155077740810654 13.75018596249432 1 -2 1
3113 445 5 0.09 4.220173466788491 3.8105822740810344 17.61624337062627 0 0 0
3051 436 6 0.09 2.3406750860470695 10.334916666647784 14.56744063839215 0 -1 2
2094 300 1 -0.65 5.528620506238138 7.845119419785031 18.30037503013121 0 1 -1
2564 367 2 0.282 1.8688203763853344 7.557379690757074 18.430975986307246 0 1 0
3052 436 7 0.419 2.3590163796099257 10.7243057730606 16.717876946263686 0 -1 2
1857 266 2 0.282 4.996510994170997 7.9633959923404225 14.593727271169278 1 -2 1
4446 636 1 -0.65 3.464293168937843 3.3683254020634354 14.149971889840216 1 1 0
3109 445 1 -0.65 2.825672480812771 2.831841524637091 18.792872435629274 0 0 0
1858 266 3 -0.65 4.21181171117429 7.605629654414867 15.663925126670472 1 -2 1
2568 367 6 0.09 1.925985338681877 6.595499206497675 17.944218401847152 0 1 0
4452 636 7 0.419 4.231540007984753 5.0785573846826395 12.148759496121166 1 1 0
1856 266 1 -0.65 5.415565998132868 9.230275884682273 14.78179618015879 1 -2 1
4449 636 4 0.419 3.1735422150150043 3.4220055664495734 15.049985554049973 1 1 0
4447 636 2 0.282 3.7768421582550884 4.716634490237947 13.921498168783058 1 1 0
1862 266 7 0.419 4.819862088178024 7.7583031553775905 16.455223701874083 1 -2 1
2097 300 4 0.419 5.297787949070793 8.166774772602977 19.18557808736539 0 1 -1
3112 445 4 0.419 2.795865506843395 2.4160356049895793 19.629484440079203 0 0 0
3555 508 6 0.09 2.9708932260892347 8.895127858550559 12.46256044706475 1 1 1
3111 445 3 -0.65 3.9542982697161997 4.708289709057636 19.586401919612612 0 0 0
3115 445 7 0.419 3.052137667562509 5.078539657892186 19.45113164171311 0 0 0
2565 367 3 -0.65 2.3276803203230156 7.477404237928395 19.725010624067746 0 1 0
607 87 5 0.09 5.14565834285435 5.603433189508311 25.385934742414854 0 0 1
78 12 1 -0.65 3.302973950209407 5.466612022434758 22.99719248789568 -1 -1 -2
1710 245 2 0.282 5.754997642468566 2.173632937421019 26.28600789772699 0 -1 1
3477 497 5 0.09 3.6327098311519492 9.79236671108948 22.32878476642441 1 0 -1
4194 600 1 -0.65 5.229428249793893 10.021332830814622 24.77731292700081 2 1 0
1019 146 4 0.419 3.2129917453211325 3.827835951791461 24.147726242948785 1 1 1
606 87 4 0.419 4.443721332137428 6.7496419049822585 24.059034882997754 0 0 1
4952 708 3 -0.65 1.8222214027495316 8.17699095765208 25.75129994546441 2 0 -2
603 87 1 -0.65 5.280697259557452 7.214105117962347 24.27381686346386 0 0 1
3475 497 3 -0.65 4.82602490118353 8.340058685387204 21.345934643010523 1 0 -1
4863 695 5 0.09 3.0811830849618262 3.0629867560329544 28.460012023413224 1 2 -1
1016 146 1 -0.65 3.1968986907496415 3.407674009786879 24.992968423411874 1 1 1
4862 695 4 0.419 2.5414494906426435 4.243723216393088 26.857937899095162 1 2 -1
79 12 2 0.282 2.122026249662413 6.1389897254444135 23.412278075833694 -1 -1 -2
604 87 2 0.282 5.5030069245570665 6.634884090510627 25.556268581265538 0 0 1
1017 146 2 0.282 2.8413983489171213 2.0580693994981822 24.712321277200274 1 1 1
4950 708 1 -0.65 2.2339131897687996 10.236634559718059 24.832290009577296 2 0 -2
4951 708 2 0.282 2.3114716482055577 9.455968943040684 26.02573167000429 2 0 -2
1713 245 5 0.09 5.6211691366370165 3.1752615395237918 25.743225648256647 0 -1 1
4860 695 2 0.282 3.100651587645499 4.170948696409828 28.667646259996236 1 2 -1
677 97 5 0.09 5.231075644264658 2.927303764232145 22.819029731354544 -1 1 0
4861 695 3 -0.65 4.421990310478604 4.621150882130506 28.740288378393057 1 2 -1
3479 497 7 0.419 4.239524424871974 7.860410296268853 22.025767925064073 1 0 -1
3473 497 1 -0.65 3.4885378548115638 9.94176761051083 20.30673119360222 1 0 -1
608 87 6 0.09 4.962900933737235 7.146492836660851 26.339664229172193 0 0 1
3474 497 2 0.282 4.251868643827639 9.651783248846126 21.38040809077437 1 0 -1
4955 708 6 0.09 3.349305534133282 9.350838835216301 26.48237672275102 2 0 -2
4197 600 4 0.419 5.252988041391205 9.09881844645051 24.55119170886582 2 1 0
81 12 4 0.419 3.0968780293630287 5.277375326152239 22.072981243999152 -1 -1 -2
80 12 3 -0.65 2.2289044117696077 7.51811159718418 23.104417569259127 -1 -1 -2
5059 723 5 0.09 5.181607459141559 7.253986544082027 28.822249117801555 1 2 -2
82 12 5 0.09 1.9721586046295916 5.914923995742414 24.528649519718147 -1 -1 -2
4953 708 4 0.419 3.179817017262571 10.173198655446573 24.620323672199024 2 0 -2
5061 723 7 0.419 3.0910783070965264 6.6411216630106 28.73713098326302 1 2 -2
5060 723 6 0.09 4.427019169531059 8.705561117260622 28.800603593023798 1 2 -2
674 97 2 0.282 6.123845581600071 2.448381196695525 22.560247770861523 -1 1 0
1714 245 6 0.09 4.82140965260545 2.1195439967372938 26.910510290162478 0 -1 1
4859 695 1 -0.65 2.489897244491551 4.877393672136013 27.580922650017584 1 2 -1
3476 497 4 0.419 2.897646111467253 9.225092524587472 20.130900414508083 1 0 -1
3478 497 6 0.09 5.141507560370199 10.355379077457616 21.52230101129378 1 0 -1
84 12 7 0.419 2.037136346959686 7.854360364716191 23.993988129979588 -1 -1 -2
4195 600 2 0.282 6.11155182420455 10.260038713640196 25.860788136240323 2 1 0
4198 600 5 0.09 5.676789148611833 9.795442251537391 26.853028749912095 2 1 0
2569 367 7 0.419 1.7532993113180662 6.793764027302857 20.167765329751354 0 1 0
1021 146 6 0.09 3.2733465138018722 1.7730501051181378 23.708288210421948 1 1 1
3724 532 7 0.419 4.267228311748862 1.8842089945138154 31.26454709817595 0 1 0
3573 511 3 -0.65 2.7409791313477827 5.559710995788783 33.7349420381023 1 2 0
1186 170 3 -0.65 2.3323355503602894 2.0370920875694045 34.17698055667264 0 1 2
3576 511 6 0.09 3.0448815103176092 6.132767717396218 31.72625081689643 1 2 0
552 79 6 0.09 2.7747962058049036 7.399783642982881 36.32536621175867 -1 1 -1
1188 170 5 0.09 4.030062098463267 2.892044493366762 34.740533339733716 0 1 2
3720 532 3 -0.65 4.522839105037635 1.8589891497995379 30.32721955750004 0 1 0
1185 170 2 0.282 3.6368731735900015 2.3487248902707707 33.81154016356995 0 1 2
3577 511 7 0.419 2.0540254495663812 4.899662664984436 33.99041831464894 1 2 0
2505 358 6 0.09 4.526733223493715 10.290045908469592 33.455460398940915 0 0 0
1187 170 4 0.419 3.1470166524529573 3.9246281012537385 32.82370530326282 0 1 2
769 110 6 0.09 4.511499387274354 4.924915830405429 35.968330405193136 0 1 0
3572 511 2 0.282 2.196803235709569 5.9331764398829865 32.462444688381865 1 2 0
767 110 4 0.419 5.31567687330042 4.200515128867427 37.65186821832841 0 1 0
765 110 2 0.282 5.6348645109771685 5.051037677098957 36.25417179393766 0 1 0
800 115 2 0.282 2.6647004240436676 10.514459290995958 31.510725107159416 -1 1 0
804 115 6 0.09 3.8364320903191063 10.699850397271895 31.450628341051157 -1 1 0
5058 723 4 0.419 5.924621229146991 7.912795825451959 30.59396552323971 1 2 -2
553 79 7 0.419 2.9095776060526823 7.985177634437188 34.20299059711419 -1 1 -1
4865 695 7 0.419 4.8304491608449345 3.99617558517381 29.359310204096687 1 2 -1
548 79 2 0.282 2.014822250921598 8.071059783195128 35.84673764763106 -1 1 -1
5055 723 1 -0.65 4.966832647018228 8.215619534166612 30.645557694349744 1 2 -2
1184 170 1 -0.65 3.745229785401193 3.142302141842206 32.63045948551645 0 1 2
764 110 1 -0.65 5.684813427162129 5.099914574009276 37.5964669819814 0 1 0
2504 358 5 0.09 5.005657724679484 10.349563511778536 35.103587289403684 0 0 0
805 115 7 0.419 2.969960510688161 8.636498804614025 31.356395089505963 -1 1 0
5057 723 3 -0.65 3.163511831793425 7.265439475495945 29.49944551748144 1 2 -2
4864 695 6 0.09 2.6679647705642022 4.3040811545581565 29.61811292227661 1 2 -1
1361 195 3 -0.65 3.7409017473971504 9.804598248620291 38.171258753223555 -1 0 -1
129 19 3 -0.65 4.6360769112973195 1.703383793803497 37.32244256649916 1 0 -2
1229 176 4 0.419 2.042418082481718 4.931195778589949 37.80690157155884 0 0 -1
768 110 5 0.09 5.876015654588143 6.02539048908207 35.70351632420643 0 1 0
549 79 3 -0.65 2.5433854466225 8.696559561344401 34.7377465670851 -1 1 -1
801 115 3 -0.65 2.286433317570715 9.183292638703175 31.833097445592674 -1 1 0
550 79 4 0.419 2.2545176812788283 9.326541469471827 37.112916972109645 -1 1 -1
1645 235 7 0.419 5.620325789430378 4.5668011741550085 32.42112145947834 0 1 0
5056 723 2 0.282 4.467687909968266 7.8281276100772175 29.38571540277313 1 2 -2
2192 314 1 -0.65 5.577287853025869 17.378894528479947 6.529473070332437 0 0 1
3833 548 4 0.419 1.9774658220593053 11.599904117085648 3.745100009537321 1 1 2
3447 493 3 -0.65 3.812815312181642 14.379230248680583 3.14654772758095 1 0 -1
471 68 2 0.282 3.799403886311123 17.802468507439986 2.851397820256807 1 1 2
1647 236 2 0.282 3.0239266714448902 11.87928929977497 7.973790396732853 0 1 0
2196 314 5 0.09 5.113843213368497 19.46822040877069 6.73968017363184 0 0 1
474 68 5 0.09 4.184083930293766 18.79403593864225 2.4774267016708587 1 1 2
2417 346 2 0.282 2.1577503119104695 18.19055060689533 6.509128772834725 1 -1 0
2345 335 7 0.419 5.498681828955734 18.99256248956524 10.264422236091606 0 0 0
2017 289 1 -0.65 3.133542041326485 18.878591633622413 10.442267853713028 2 1 -1
2422 346 7 0.419 3.5471603945378094 17.27219816917108 7.237255280770511 1 -1 0
3445 493 1 -0.65 4.412179282314543 14.55054971628597 5.497004155717944 1 0 -1
2418 346 3 -0.65 2.6599151727325987 17.017050585776445 7.005345983292009 1 -1 0
472 68 3 -0.65 2.5219381347997323 17.93121908752307 3.2281809685526177 1 1 2
4350 622 3 -0.65 5.4492054851812926 11.031302359266725 4.766144362936791 0 -1 0
476 68 7 0.419 2.326524012807976 18.87550263454932 3.1614066307387017 1 1 2
3446 493 2 0.282 4.789803057011389 14.587539087583194 4.099004988006138 1 0 -1
1648 236 3 -0.65 4.371583823933609 12.115137600891808 7.67098691892455 0 1 0
3451 493 7 0.419 3.4406045993517242 13.481418869619002 3.3339922337963053 1 0 -1
3504 501 4 0.419 5.134405726923479 13.090420352708891 9.25381520375354 1 -1 0
473 68 4 0.419 3.8469325464356907 15.997102161731343 2.2048838361378174 1 1 2
475 68 6 0.09 4.393078937288502 17.571325033611842 3.7841522206899856 1 1 2
3502 501 2 0.282 5.423511147747239 14.977904392894606 9.361105995282584 1 -1 0
1363 195 5 0.09 4.592268856845607 11.64618204903253 2.0480826107185903 -1 0 0
1652 236 7 0.419 4.310474582480316 12.269108318689804 6.690055362873762 0 1 0
3448 493 4 0.419 4.365418317923372 15.48588033973713 5.75614554930082 1 0 -1
2193 314 2 0.282 5.853555580086715 18.743226997964264 6.265850681422978 0 0 1
3506 501 6 0.09 4.773682302748439 15.03482301843579 8.451694238053182 1 -1 0
3450 493 6 0.09 5.227858543926031 15.527666251153642 3.8857191761353267 1 0 -1
3449 493 5 0.09 5.565707134249468 13.815483360592577 3.952878697189953 1 0 -1
1650 236 5 0.09 2.8014531822702313 12.381419409173477 8.950471577707425 0 1 0
1651 236 6 0.09 2.3804120299573475 12.302172263666122 7.175365927496507 0 1 0
3501 501 1 -0.65 5.081057221103272 13.737068806987653 9.988879397039435 1 -1 0
470 68 1 -0.65 4.037143768274451 16.89790686315312 1.8426390363785279 1 1 2
1359 195 1 -0.65 2.5154826726437025 11.89318120342166 1.743688858920766 -1 0 0
2420 346 5 0.09 2.992707909532939 18.68541751659175 5.989259352049489 1 -1 0
3830 548 1 -0.65 2.0864242164504936 11.501919013140883 4.709838475581693 1 1 2
2020 289 4 0.419 2.38118671523784 18.988834121386603 9.848932832074448 2 1 -1
3505 501 5 0.09 5.1727292439727375 15.929346627716464 9.98052514926586 1 -1 0
2197 314 6 0.09 5.785670055548565 18.93034277798273 5.179354163447407 0 0 1
5079 726 4 0.419 1.9405772770207004 15.21803351004744 7.027643766357684 1 0 3
2023 289 7 0.419 4.417421881193132 18.818752795916776 12.541569030801577 2 1 -1
5095 728 6 0.09 2.5865960556783927 18.700932059004312 18.378692575082113 0 0 0
4251 608 2 0.282 4.939698533323613 15.672256874242398 19.160785825436083 -2 0 1
4256 608 7 0.419 3.263993667022328 15.647695524610329 18.141628878654693 -2 0 1
3380 483 6 0.09 5.739667090268599 12.979891982644292 14.450313028705931 0 1 1
4252 608 3 -0.65 3.590752409355587 16.144047995089405 18.89402280165073 -2 0 1
3378 483 4 0.419 5.528813960641701 13.173344272850162 11.702397588560634 0 1 1
3874 554 3 -0.65 2.0683942452052784 14.576689925912854 17.039298175809137 1 0 0
4255 608 6 0.09 5.501075227613008 15.914210943939961 18.28462018140922 -2 0 1
5091 728 2 0.282 2.278772564917919 19.334695011101992 19.23102134997683 0 0 0
3553 508 4 0.419 3.201201290087357 11.05848144028458 12.601982443953476 1 1 1
3209 459 3 -0.65 2.5779088302943047 15.400406394944808 11.085487264254592 -1 -1 0
4403 629 7 0.419 4.38072659431749 16.301899038166404 12.239636639877801 1 -1 0
2335 334 4 0.419 4.803170107849651 12.979412967391042 17.185527385676203 0 0 0
3877 554 6 0.09 3.492027822799606 13.888573681807994 15.832499866049492 1 0 0
2922 418 3 -0.65 3.094285868257639 19.503208196167943 15.448266553370617 1 1 -1
3872 554 1 -0.65 2.9761108384310653 12.383251388870935 17.268900351286362 1 0 0
4402 629 6 0.09 5.254087686196883 15.864108431657474 14.256039558961296 1 -1 0
4254 608 5 0.09 5.070320626672007 14.5687593642994 19.32954145026518 -2 0 1
2386 341 6 0.09 6.085566693586182 18.99616565559089 17.22233498439382 1 0 1
3873 554 2 0.282 2.6226205222852825 13.458329709328623 16.36476353836511 1 0 0
2021 289 5 0.09 2.36417840781469 18.70427250055992 12.244405056597012 2 1 -1
2926 418 7 0.419 3.8920599437311423 19.083816773394087 15.138704122538591 1 1 -1
3381 483 7 0.419 5.315295961915718 11.06594660182444 13.81630063710579 0 1 1
3377 483 3 -0.65 4.644626910902671 11.669491906033084 13.39531417883449 0 1 1
3875 554 4 0.419 2.276593050043431 12.308867391813084 17.926371981774817 1 0 0
2333 334 2 0.282 5.86465595540628 11.76941643287099 17.953751125017185 0 0 0
3379 483 5 0.09 4.472416966161486 13.761894812118111 13.507193935340624 0 1 1
3376 483 2 0.282 5.220109077527012 12.9612381397176 13.489998088215483 0 1 1
4397 629 1 -0.65 5.318839227411512 17.906412346613212 14.714552413365345 1 -1 0
3212 459 6 0.09 3.174648113749427 13.636552012617068 11.784791173196648 -1 -1 0
4399 629 3 -0.65 4.841879001694377 17.12105597077072 12.661341145588375 1 -1 0
4398 629 2 0.282 4.79466428163945 16.86110331760907 14.006901095518593 1 -1 0
3550 508 1 -0.65 2.299237414091365 10.894520990350745 12.3006404211826 1 1 1
2337 334 6 0.09 5.629200725579585 12.0073538138416 19.005328107894115 0 0 0
4401 629 5 0.09 3.774842827205566 16.761079625812094 14.354461375074616 1 -1 0
2019 289 3 -0.65 4.056962907387568 19.696597554419043 12.439322063007491 2 1 -1
3207 459 1 -0.65 1.9267713217705416 14.551088400677688 13.193929002400694 -1 -1 0
3208 459 2 0.282 2.250618461094877 14.317451570068565 11.890037822372172 -1 -1 0
2332 334 1 -0.65 5.748330244851905 12.955039730858212 17.23225872256258 0 0 0
2018 289 2 0.282 2.9071153390131386 19.437947023131684 11.71071243565722 2 1 -1
2336 334 5 0.09 5.158698117121501 10.979951442422518 17.462671199403456 0 0 0
3876 554 5 0.09 1.8773070692302625 13.141505940154138 15.63690847074389 1 0 0
3213 459 7 0.419 1.8282541867649647 16.000544044306857 11.176478664745199 -1 -1 0
3375 483 1 -0.65 6.197845170319131 13.187571591701037 12.46113892462646 0 1 1
4400 629 4 0.419 5.921935253164603 17.453160735233205 15.28121642667623 1 -1 0
1225 175 7 0.419 4.910579249882595 17.755268031071928 25.211450916563273 2 -3 0
1863 267 1 -0.65 4.2735895283852114 13.48043055978761 22.356984693483284 1 0 0
835 120 2 0.282 4.230312885142803 13.14494089757107 27.100008287861893 2 0 -1
1869 267 7 0.419 4.037713432453218 16.24735203883874 23.665948749728308 1 0 0
2815 403 1 -0.65 5.716691141142543 19.221559574786845 20.231858916916188 1 1 -1
1864 267 2 0.282 4.531316956406895 14.485298406012026 23.298890781173167 1 0 0
5094 728 5 0.09 2.623777290525813 18.90636062501124 20.16138102328051 0 0 0
836 120 3 -0.65 3.324424192494289 14.11254843862255 27.522569612976245 2 0 -1
1089 156 4 0.419 2.5327559645134814 18.327467352760802 27.97283142225217 0 2 -1
1865 267 3 -0.65 4.109532919417553 15.71015853748134 22.85020066072165 1 0 0
4253 608 4 0.419 5.108539316969145 16.03096777890467 21.022523977706747 -2 0 1
840 120 7 0.419 3.195238718226656 13.946314871348395 28.442794328238627 2 0 -1
1086 156 1 -0.65 3.309786153546138 17.952687763894897 27.482725558733033 0 2 -1
839 120 6 0.09 5.28290220590693 13.378246837913753 27.465703393914186 2 0 -1
4684 670 1 -0.65 5.463667669087509 16.05719630624284 28.141915503727013 2 1 -1
838 120 5 0.09 4.299531058472101 13.176588453144419 25.99181878721447 2 0 -1
2818 403 4 0.419 5.547890462640419 18.30738703928857 20.30102119741222 1 1 -1
1866 267 4 0.419 5.087779910162883 13.421177873798962 21.90288409906895 1 0 0
837 120 4 0.419 2.80779386751398 12.119326695882707 27.345148053851965 2 0 -1
1092 156 7 0.419 3.4430629936634043 15.733234277461916 26.175930623551118 0 2 -1
1224 175 6 0.09 4.780385974655047 19.959801887680506 25.239689428971538 2 -3 0
1090 156 5 0.09 2.3337848713464084 18.275203134591354 25.586546742515274 0 2 -1
1087 156 2 0.282 2.690591596050429 17.44903608023358 26.28511318446198 0 2 -1
2819 403 5 0.09 6.0141767034783555 18.715586379726584 22.232399756121755 1 1 -1
1088 156 3 -0.65 3.4532808896848968 16.493744895484777 25.607678556274664 0 2 -1
2475 354 4 0.419 2.238819169932576 13.39592839847039 21.878737884066293 -1 0 1
1345 193 1 -0.65 2.4649049431768297 18.64550039584877 22.64745031782826 -1 1 -1
1868 267 6 0.09 3.9804867388423406 14.360569011687229 24.239667480232168 1 0 0
1867 267 5 0.09 5.642713385613171 14.573451385763063 23.403189002094923 1 0 0
2476 354 5 0.09 1.9353837021603513 15.141447272186326 20.467051687571935 -1 0 1
834 120 1 -0.65 3.7088933453885415 11.879492213136702 27.497633005547268 2 0 -1
1221 175 3 -0.65 5.806692378737846 18.09243325315108 24.955703889274584 2 -3 0
1348 193 4 0.419 2.77350465296607 19.568552571203977 22.747894774285943 -1 1 -1
4250 608 1 -0.65 5.6241589419376705 16.291421449910207 20.246360182892293 -2 0 1
4687 670 4 0.419 4.95667299403552 16.64497402512793 27.554347946293852 2 1 -1
4078 583 4 0.419 3.794342208506766 19.802602879953696 28.475511692814596 0 -1 -1
1220 175 2 0.282 5.807034169596417 19.508055750417096 25.19551226409372 2 -3 0
4685 670 2 0.282 6.127251327867619 16.91448850352235 29.02355747420605 2 1 -1
1091 156 6 0.09 1.8183341128228998 16.911510481611188 26.62317503832143 0 2 -1
565 81 5 0.09 4.08209596998893 14.962259805198912 31.33299549833897 -1 1 -1
876 126 1 -0.65 5.2736386420995105 14.138446279624493 36.03607844342792 0 -1 0
2562 366 7 0.419 5.56978665965174 15.390693055394719 34.011982586606194 0 -1 0
2050 293 6 0.09 5.698633287287471 18.656423014633326 32.43472722967694 0 1 -1
562 81 2 0.282 4.06567843113746 13.86583104822817 30.937049070619253 -1 1 -1
561 81 1 -0.65 5.104539925621464 13.640513047500505 30.08222067475826 -1 1 -1
879 126 4 0.419 5.632893501990688 14.502436179003567 36.825569408299174 0 -1 0
880 126 5 0.09 3.9825128959682936 15.761985173696324 36.185392669611225 0 -1 0
2737 391 7 0.419 6.025486595600633 19.972226896401942 35.07342499029446 1 0 0
567 81 7 0.419 2.866469072998151 12.809684721141034 29.997444261929342 -1 1 -1
878 126 3 -0.65 3.6295309104316003 14.585424214973408 34.5253693197175 0 -1 0
881 126 6 0.09 3.2697788422865597 14.045261636657854 36.53871173054237 0 -1 0
4689 670 6 0.09 5.465205694564743 17.693920975084694 29.507577108107817 2 1 -1
4098 586 3 -0.65 2.8262093495099903 19.193775874944798 32.594674183029085 1 1 -1
882 126 7 0.419 3.7507267804863136 13.622992592964364 34.37150063453776 0 -1 0
2503 358 4 0.419 5.93165704709341 12.078461393232761 34.900094041687375 0 0 0
564 81 4 0.419 5.174795642137131 14.422062294420556 29.50992128147713 -1 1 -1
4099 586 4 0.419 2.587477875373451 17.379896940056984 34.61130016728755 1 1 -1
2502 358 3 -0.65 3.543607038446294 11.748515165879748 34.5887235658697 0 0 0
2731 391 1 -0.65 3.9622679392306015 18.293081084825296 35.66093411834646 1 0 0
4101 586 6 0.09 3.646818947564699 17.263140637044046 32.79795845472058 1 1 -1
1364 195 6 0.09 4.08631508302585 11.553944531237315 37.08863419681801 -1 0 -1
4100 586 5 0.09 2.195397075553636 17.418384026160965 31.894323034878692 1 1 -1
2500 358 1 -0.65 5.766079709170417 11.818172128454025 34.00109712883528 0 0 0
877 126 2 0.282 3.9650241460251574 14.664903766402604 35.90521724375653 0 -1 0
563 81 3 -0.65 2.852698009375132 13.756505217872578 30.275846912782427 -1 1 -1
2732 391 2 0.282 4.13726841744487 19.665548201882395 35.54531124764839 1 0 0
566 81 6 0.09 4.188118333398304 13.133488422606723 31.776771561675908 -1 1 -1
2734 391 4 0.419 4.484672161605851 17.97866563955111 36.40953978799152 1 0 0
4097 586 2 0.282 2.716565383107346 17.791198995686013 32.77293713845362 1 1 -1
1362 195 4 0.419 2.0065729680450635 11.831261917861452 37.589586090430245 -1 0 -1
4096 586 1 -0.65 1.9639352734249909 17.419238141227787 33.882369628488156 1 1 -1
2501 358 2 0.282 4.645935892664172 10.979559784136852 34.25592010115268 0 0 0
1360 195 2 0.282 3.7445847368699066 11.240470746155324 38.075487325078555 -1 0 -1
803 115 5 0.09 2.3498831522232537 11.256604205157725 32.25798337866648 -1 1 0
2558 366 3 -0.65 6.213922620257152 15.671616993756338 33.364589224140914 0 -1 0
2506 358 7 0.419 2.9564343510891273 10.965878980198712 34.620710535463374 0 0 0
4102 586 7 0.419 2.0356929383970526 19.455990292299415 32.074045306578796 1 1 -1
2736 391 6 0.09 3.8980787640871952 19.948495126580905 34.537367541914286 1 0 0
799 115 1 -0.65 2.118185768284935 10.86983044707911 30.283277410045244 -1 1 0
1291 185 3 -0.65 3.6207890349442975 20.95108279274828 4.643877727670066 0 0 1
4285 613 1 -0.65 5.544244340081368 21.822406609361853 7.6083823803179484 2 0 0
2710 388 1 -0.65 3.0393877167592107 27.002734412052106 8.981867896592178 0 -1 0
1293 185 5 0.09 3.5720770409560103 22.689500604479726 5.777841869800423 0 0 1
2716 388 7 0.419 3.1528384885776726 24.116202737139158 7.938946601284399 0 -1 0
4286 613 2 0.282 4.596889053104826 21.541236289881578 8.664620758457417 2 0 0
4288 613 4 0.419 6.046839820096502 22.572070739514917 8.032286331589496 2 0 0
1289 185 1 -0.65 3.842501529846372 23.097165963117206 3.7836276803165183 0 0 1
2799 400 6 0.09 3.011646369789839 26.82949093147115 1.7913122250075764 2 0 2
2797 400 4 0.419 4.761236008427145 27.144463265099297 3.491737031796133 2 0 2
4291 613 7 0.419 3.1987063299746055 22.272216976887506 9.543375060959532 2 0 0
3284 470 1 -0.65 3.7018760895129974 26.747136663066332 5.326820379759646 0 -1 0
1294 185 6 0.09 5.202118942233335 22.23601538962567 5.140361738218585 0 0 1
2712 388 3 -0.65 2.8274948108583593 24.995267404734438 7.81161103210527 0 -1 0
1292 185 4 0.419 4.225333403387133 22.597037738585176 3.0492703550264917 0 0 1
3289 470 6 0.09 4.953663176773684 26.70558828722656 6.993497916593413 0 -1 0
3287 470 4 0.419 3.188599604422411 26.128744113503693 5.877631806402251 0 -1 0
2715 388 6 0.09 3.89215655989706 25.151031100612688 9.531910589042418 0 -1 0
4967 710 4 0.419 3.4901663014899773 28.486015315844675 5.062833760001863 -1 1 2
4287 613 3 -0.65 3.71503236293051 22.61989532289283 8.86306820678039 2 0 0
2795 400 2 0.282 3.6338418209120125 27.747688940256634 2.005852997940248 2 0 2
2794 400 1 -0.65 4.84844485327779 27.21136180188257 2.548530936767732 2 0 2
3288 470 5 0.09 5.252490454381018 25.40378916993947 5.7462581867611044 0 -1 0
4289 613 5 0.09 5.020310921169601 21.28889038391152 9.62575814834089 2 0 0
4290 613 6 0.09 4.014356030952273 20.633733933407004 8.456641914135067 2 0 0
2798 400 5 0.09 2.9710571145589038 28.31518779622171 2.6568212340134916 2 0 2
3285 470 2 0.282 5.012993465260715 26.52164032755347 5.859003923747769 0 -1 0
1295 185 7 0.419 2.674359559741009 21.18906783405526 4.62841451907828 0 0 1
4969 710 6 0.09 2.1425076690790283 28.872709434932645 6.513487547828751 -1 1 2
2714 388 5 0.09 2.1177144350084065 25.2056272164035 9.74510606465178 0 -1 0
2711 388 2 0.282 2.9667343136766875 25.55005812629621 9.095235666892954 0 -1 0
1290 185 2 0.282 4.1078832576495445 22.250426219180117 4.938894250566582 0 0 1
797 114 6 0.09 2.194083784322247 22.31002852146091 2.3021915948760294 0 0 0
2713 388 4 0.419 4.00925871613364 27.131030283736187 8.992038419313197 0 -1 0
3538 506 3 -0.65 5.65834961840331 27.69901202317632 9.74116162684803 0 1 -1
3286 470 3 -0.65 6.0324269551169145 27.39259513631836 5.283638834988892 0 -1 0
3542 506 7 0.419 5.246439016917009 27.592734049111208 10.561064868468305 0 1 -1
3198 457 6 0.09 5.296722369094068 23.77655906877799 1.7669094980746307 0 0 1
4425 633 1 -0.65 3.3181982427706553 29.12796863556911 17.3390030938385 -1 -1 0
5090 728 1 -0.65 2.7297651932011333 20.580795145002664 18.84148149830755 0 0 0
2189 313 5 0.09 4.163031540351822 23.773779298121653 12.276015854918844 0 0 -1
3253 465 5 0.09 4.223045151073693 24.41325754379361 17.16322055792702 1 0 1
3986 570 3 -0.65 2.2745486399444834 26.006609933085354 16.36021515631472 1 -1 -2