LAMMPS data file via write_data, version 29 Sep 2021, timestep = 1000000

6264 atoms
29 atom types
6048 bonds
28 bond types
11016 angles
51 angle types
15552 dihedrals
72 dihedral types
3672 impropers
17 improper types

3.2177593161119873 41.78224068389559 xlo xhi
3.2177593161119873 41.78224068389559 ylo yhi
3.2177593161119873 41.78224068389559 zlo zhi

Masses

1 12.011
2 14.007
3 12.011
4 30.974
5 15.999
6 14.007
7 12.011
8 12.011
9 14.007
10 12.011
11 12.011
12 1.008
13 1.008
14 1.008
15 1.008
16 1.008
17 1.008
18 1.008
19 1.008
20 1.008
21 1.008
22 1.008
23 1.008
24 1.008
25 1.008
26 1.008
27 1.008
28 1.008
29 1.008

PairIJ Coeffs # lj/charmmfsw/coul/long

1 1 0.078 3.65268 0.01 3.38542
1 2 0.1249 3.47451 0.044721 3.34087
1 3 0.078 3.65268 0.01 3.38542
1 4 0.213612 3.74178 0.076485 3.60814
1 5 0.096747 3.34087 0.034641 3.20723
1 6 0.1249 3.47451 0.044721 3.34087
1 7 0.078 3.65268 0.01 3.38542
1 8 0.078 3.65268 0.01 3.38542
1 9 0.1249 3.47451 0.044721 3.34087
1 10 0.078 3.65268 0.01 3.38542
1 11 0.078 3.65268 0.01 3.38542
1 12 0.043267 3.02015 0.015492 2.88651
1 13 0.043267 3.02015 0.015492 2.88651
1 14 0.043267 3.02015 0.015492 2.88651
1 15 0.043267 3.02015 0.015492 2.88651
1 16 0.043267 3.02015 0.015492 2.88651
1 17 0.043267 3.02015 0.015492 2.88651
1 18 0.043267 3.02015 0.015492 2.88651
1 19 0.043267 3.02015 0.015492 2.88651
1 20 0.043267 3.02015 0.015492 2.88651
1 21 0.043267 3.02015 0.015492 2.88651
1 22 0.043267 3.02015 0.015492 2.88651
1 23 0.043267 3.02015 0.015492 2.88651
1 24 0.043267 3.02015 0.015492 2.88651
1 25 0.043267 3.02015 0.015492 2.88651
1 26 0.043267 3.02015 0.015492 2.88651
1 27 0.043267 3.02015 0.015492 2.88651
1 28 0.043267 3.02015 0.015492 2.88651
1 29 0.043267 3.02015 0.015492 2.88651
2 2 0.2 3.29632 0.2 3.29632
2 3 0.1249 3.47451 0.044721 3.34087
2 4 0.342053 3.56359 0.342053 3.56359
2 5 0.154919 3.16269 0.154919 3.16269
2 6 0.2 3.29632 0.2 3.29632
2 7 0.1249 3.47451 0.044721 3.34087
2 8 0.1249 3.47451 0.044721 3.34087
2 9 0.2 3.29632 0.2 3.29632
2 10 0.1249 3.47451 0.044721 3.34087
2 11 0.1249 3.47451 0.044721 3.34087
2 12 0.069282 2.84197 0.069282 2.84197
2 13 0.069282 2.84197 0.069282 2.84197
2 14 0.069282 2.84197 0.069282 2.84197
2 15 0.069282 2.84197 0.069282 2.84197
2 16 0.069282 2.84197 0.069282 2.84197
2 17 0.069282 2.84197 0.069282 2.84197
2 18 0.069282 2.84197 0.069282 2.84197
2 19 0.069282 2.84197 0.069282 2.84197
2 20 0.069282 2.84197 0.069282 2.84197
2 21 0.069282 2.84197 0.069282 2.84197
2 22 0.069282 2.84197 0.069282 2.84197
2 23 0.069282 2.84197 0.069282 2.84197
2 24 0.069282 2.84197 0.069282 2.84197
2 25 0.069282 2.84197 0.069282 2.84197
2 26 0.069282 2.84197 0.069282 2.84197
2 27 0.069282 2.84197 0.069282 2.84197
2 28 0.069282 2.84197 0.069282 2.84197
2 29 0.069282 2.84197 0.069282 2.84197
3 3 0.078 3.65268 0.01 3.38542
3 4 0.213612 3.74178 0.076485 3.60814
3 5 0.096747 3.34087 0.034641 3.20723
3 6 0.1249 3.47451 0.044721 3.34087
3 7 0.078 3.65268 0.01 3.38542
3 8 0.078 3.65268 0.01 3.38542
3 9 0.1249 3.47451 0.044721 3.34087
3 10 0.078 3.65268 0.01 3.38542
3 11 0.078 3.65268 0.01 3.38542
3 12 0.043267 3.02015 0.015492 2.88651
3 13 0.043267 3.02015 0.015492 2.88651
3 14 0.043267 3.02015 0.015492 2.88651
3 15 0.043267 3.02015 0.015492 2.88651
3 16 0.043267 3.02015 0.015492 2.88651
3 17 0.043267 3.02015 0.015492 2.88651
3 18 0.043267 3.02015 0.015492 2.88651
3 19 0.043267 3.02015 0.015492 2.88651
3 20 0.043267 3.02015 0.015492 2.88651
3 21 0.043267 3.02015 0.015492 2.88651
3 22 0.043267 3.02015 0.015492 2.88651
3 23 0.043267 3.02015 0.015492 2.88651
3 24 0.043267 3.02015 0.015492 2.88651
3 25 0.043267 3.02015 0.015492 2.88651
3 26 0.043267 3.02015 0.015492 2.88651
3 27 0.043267 3.02015 0.015492 2.88651
3 28 0.043267 3.02015 0.015492 2.88651
3 29 0.043267 3.02015 0.015492 2.88651
4 4 0.585 3.83086 0.585 3.83086
4 5 0.264953 3.42996 0.264953 3.42996
4 6 0.342053 3.56359 0.342053 3.56359
4 7 0.213612 3.74178 0.076485 3.60814
4 8 0.213612 3.74178 0.076485 3.60814
4 9 0.342053 3.56359 0.342053 3.56359
4 10 0.213612 3.74178 0.076485 3.60814
4 11 0.213612 3.74178 0.076485 3.60814
4 12 0.118491 3.10924 0.118491 3.10924
4 13 0.118491 3.10924 0.118491 3.10924
4 14 0.118491 3.10924 0.118491 3.10924
4 15 0.118491 3.10924 0.118491 3.10924
4 16 0.118491 3.10924 0.118491 3.10924
4 17 0.118491 3.10924 0.118491 3.10924
4 18 0.118491 3.10924 0.118491 3.10924
4 19 0.118491 3.10924 0.118491 3.10924
4 20 0.118491 3.10924 0.118491 3.10924
4 21 0.118491 3.10924 0.118491 3.10924
4 22 0.118491 3.10924 0.118491 3.10924
4 23 0.118491 3.10924 0.118491 3.10924
4 24 0.118491 3.10924 0.118491 3.10924
4 25 0.118491 3.10924 0.118491 3.10924
4 26 0.118491 3.10924 0.118491 3.10924
4 27 0.118491 3.10924 0.118491 3.10924
4 28 0.118491 3.10924 0.118491 3.10924
4 29 0.118491 3.10924 0.118491 3.10924
5 5 0.12 3.02906 0.12 3.02906
5 6 0.154919 3.16269 0.154919 3.16269
5 7 0.096747 3.34087 0.034641 3.20723
5 8 0.096747 3.34087 0.034641 3.20723
5 9 0.154919 3.16269 0.154919 3.16269
5 10 0.096747 3.34087 0.034641 3.20723
5 11 0.096747 3.34087 0.034641 3.20723
5 12 0.053666 2.70833 0.053666 2.70833
5 13 0.053666 2.70833 0.053666 2.70833
5 14 0.053666 2.70833 0.053666 2.70833
5 15 0.053666 2.70833 0.053666 2.70833
5 16 0.053666 2.70833 0.053666 2.70833
5 17 0.053666 2.70833 0.053666 2.70833
5 18 0.053666 2.70833 0.053666 2.70833
5 19 0.053666 2.70833 0.053666 2.70833
5 20 0.053666 2.70833 0.053666 2.70833
5 21 0.053666 2.70833 0.053666 2.70833
5 22 0.053666 2.70833 0.053666 2.70833
5 23 0.053666 2.70833 0.053666 2.70833
5 24 0.053666 2.70833 0.053666 2.70833
5 25 0.053666 2.70833 0.053666 2.70833
5 26 0.053666 2.70833 0.053666 2.70833
5 27 0.053666 2.70833 0.053666 2.70833
5 28 0.053666 2.70833 0.053666 2.70833
5 29 0.053666 2.70833 0.053666 2.70833
6 6 0.2 3.29632 0.2 3.29632
6 7 0.1249 3.47451 0.044721 3.34087
6 8 0.1249 3.47451 0.044721 3.34087
6 9 0.2 3.29632 0.2 3.29632
6 10 0.1249 3.47451 0.044721 3.34087
6 11 0.1249 3.47451 0.044721 3.34087
6 12 0.069282 2.84197 0.069282 2.84197
6 13 0.069282 2.84197 0.069282 2.84197
6 14 0.069282 2.84197 0.069282 2.84197
6 15 0.069282 2.84197 0.069282 2.84197
6 16 0.069282 2.84197 0.069282 2.84197
6 17 0.069282 2.84197 0.069282 2.84197
6 18 0.069282 2.84197 0.069282 2.84197
6 19 0.069282 2.84197 0.069282 2.84197
6 20 0.069282 2.84197 0.069282 2.84197
6 21 0.069282 2.84197 0.069282 2.84197
6 22 0.069282 2.84197 0.069282 2.84197
6 23 0.069282 2.84197 0.069282 2.84197
6 24 0.069282 2.84197 0.069282 2.84197
6 25 0.069282 2.84197 0.069282 2.84197
6 26 0.069282 2.84197 0.069282 2.84197
6 27 0.069282 2.84197 0.069282 2.84197
6 28 0.069282 2.84197 0.069282 2.84197
6 29 0.069282 2.84197 0.069282 2.84197
7 7 0.078 3.65268 0.01 3.38542
7 8 0.078 3.65268 0.01 3.38542
7 9 0.1249 3.47451 0.044721 3.34087
7 10 0.078 3.65268 0.01 3.38542
7 11 0.078 3.65268 0.01 3.38542
7 12 0.043267 3.02015 0.015492 2.88651
7 13 0.043267 3.02015 0.015492 2.88651
7 14 0.043267 3.02015 0.015492 2.88651
7 15 0.043267 3.02015 0.015492 2.88651
7 16 0.043267 3.02015 0.015492 2.88651
7 17 0.043267 3.02015 0.015492 2.88651
7 18 0.043267 3.02015 0.015492 2.88651
7 19 0.043267 3.02015 0.015492 2.88651
7 20 0.043267 3.02015 0.015492 2.88651
7 21 0.043267 3.02015 0.015492 2.88651
7 22 0.043267 3.02015 0.015492 2.88651
7 23 0.043267 3.02015 0.015492 2.88651
7 24 0.043267 3.02015 0.015492 2.88651
7 25 0.043267 3.02015 0.015492 2.88651
7 26 0.043267 3.02015 0.015492 2.88651
7 27 0.043267 3.02015 0.015492 2.88651
7 28 0.043267 3.02015 0.015492 2.88651
7 29 0.043267 3.02015 0.015492 2.88651
8 8 0.078 3.65268 0.01 3.38542
8 9 0.1249 3.47451 0.044721 3.34087
8 10 0.078 3.65268 0.01 3.38542
8 11 0.078 3.65268 0.01 3.38542
8 12 0.043267 3.02015 0.015492 2.88651
8 13 0.043267 3.02015 0.015492 2.88651
8 14 0.043267 3.02015 0.015492 2.88651
8 15 0.043267 3.02015 0.015492 2.88651
8 16 0.043267 3.02015 0.015492 2.88651
8 17 0.043267 3.02015 0.015492 2.88651
8 18 0.043267 3.02015 0.015492 2.88651
8 19 0.043267 3.02015 0.015492 2.88651
8 20 0.043267 3.02015 0.015492 2.88651
8 21 0.043267 3.02015 0.015492 2.88651
8 22 0.043267 3.02015 0.015492 2.88651
8 23 0.043267 3.02015 0.015492 2.88651
8 24 0.043267 3.02015 0.015492 2.88651
8 25 0.043267 3.02015 0.015492 2.88651
8 26 0.043267 3.02015 0.015492 2.88651
8 27 0.043267 3.02015 0.015492 2.88651
8 28 0.043267 3.02015 0.015492 2.88651
8 29 0.043267 3.02015 0.015492 2.88651
9 9 0.2 3.29632 0.2 3.29632
9 10 0.1249 3.47451 0.044721 3.34087
9 11 0.1249 3.47451 0.044721 3.34087
9 12 0.069282 2.84197 0.069282 2.84197
9 13 0.069282 2.84197 0.069282 2.84197
9 14 0.069282 2.84197 0.069282 2.84197
9 15 0.069282 2.84197 0.069282 2.84197
9 16 0.069282 2.84197 0.069282 2.84197
9 17 0.069282 2.84197 0.069282 2.84197
9 18 0.069282 2.84197 0.069282 2.84197
9 19 0.069282 2.84197 0.069282 2.84197
9 20 0.069282 2.84197 0.069282 2.84197
9 21 0.069282 2.84197 0.069282 2.84197
9 22 0.069282 2.84197 0.069282 2.84197
9 23 0.069282 2.84197 0.069282 2.84197
9 24 0.069282 2.84197 0.069282 2.84197
9 25 0.069282 2.84197 0.069282 2.84197
9 26 0.069282 2.84197 0.069282 2.84197
9 27 0.069282 2.84197 0.069282 2.84197
9 28 0.069282 2.84197 0.069282 2.84197
9 29 0.069282 2.84197 0.069282 2.84197
10 10 0.078 3.65268 0.01 3.38542
10 11 0.078 3.65268 0.01 3.38542
10 12 0.043267 3.02015 0.015492 2.88651
10 13 0.043267 3.02015 0.015492 2.88651
10 14 0.043267 3.02015 0.015492 2.88651
10 15 0.043267 3.02015 0.015492 2.88651
10 16 0.043267 3.02015 0.015492 2.88651
10 17 0.043267 3.02015 0.015492 2.88651
10 18 0.043267 3.02015 0.015492 2.88651
10 19 0.043267 3.02015 0.015492 2.88651
10 20 0.043267 3.02015 0.015492 2.88651
10 21 0.043267 3.02015 0.015492 2.88651
10 22 0.043267 3.02015 0.015492 2.88651
10 23 0.043267 3.02015 0.015492 2.88651
10 24 0.043267 3.02015 0.015492 2.88651
10 25 0.043267 3.02015 0.015492 2.88651
10 26 0.043267 3.02015 0.015492 2.88651
10 27 0.043267 3.02015 0.015492 2.88651
10 28 0.043267 3.02015 0.015492 2.88651
10 29 0.043267 3.02015 0.015492 2.88651
11 11 0.078 3.65268 0.01 3.38542
11 12 0.043267 3.02015 0.015492 2.88651
11 13 0.043267 3.02015 0.015492 2.88651
11 14 0.043267 3.02015 0.015492 2.88651
11 15 0.043267 3.02015 0.015492 2.88651
11 16 0.043267 3.02015 0.015492 2.88651
11 17 0.043267 3.02015 0.015492 2.88651
11 18 0.043267 3.02015 0.015492 2.88651
11 19 0.043267 3.02015 0.015492 2.88651
11 20 0.043267 3.02015 0.015492 2.88651
11 21 0.043267 3.02015 0.015492 2.88651
11 22 0.043267 3.02015 0.015492 2.88651
11 23 0.043267 3.02015 0.015492 2.88651
11 24 0.043267 3.02015 0.015492 2.88651
11 25 0.043267 3.02015 0.015492 2.88651
11 26 0.043267 3.02015 0.015492 2.88651
11 27 0.043267 3.02015 0.015492 2.88651
11 28 0.043267 3.02015 0.015492 2.88651
11 29 0.043267 3.02015 0.015492 2.88651
12 12 0.024 2.38761 0.024 2.38761
12 13 0.024 2.38761 0.024 2.38761
12 14 0.024 2.38761 0.024 2.38761
12 15 0.024 2.38761 0.024 2.38761
12 16 0.024 2.38761 0.024 2.38761
12 17 0.024 2.38761 0.024 2.38761
12 18 0.024 2.38761 0.024 2.38761
12 19 0.024 2.38761 0.024 2.38761
12 20 0.024 2.38761 0.024 2.38761
12 21 0.024 2.38761 0.024 2.38761
12 22 0.024 2.38761 0.024 2.38761
12 23 0.024 2.38761 0.024 2.38761
12 24 0.024 2.38761 0.024 2.38761
12 25 0.024 2.38761 0.024 2.38761
12 26 0.024 2.38761 0.024 2.38761
12 27 0.024 2.38761 0.024 2.38761
12 28 0.024 2.38761 0.024 2.38761
12 29 0.024 2.38761 0.024 2.38761
13 13 0.024 2.38761 0.024 2.38761
13 14 0.024 2.38761 0.024 2.38761
13 15 0.024 2.38761 0.024 2.38761
13 16 0.024 2.38761 0.024 2.38761
13 17 0.024 2.38761 0.024 2.38761
13 18 0.024 2.38761 0.024 2.38761
13 19 0.024 2.38761 0.024 2.38761
13 20 0.024 2.38761 0.024 2.38761
13 21 0.024 2.38761 0.024 2.38761
13 22 0.024 2.38761 0.024 2.38761
13 23 0.024 2.38761 0.024 2.38761
13 24 0.024 2.38761 0.024 2.38761
13 25 0.024 2.38761 0.024 2.38761
13 26 0.024 2.38761 0.024 2.38761
13 27 0.024 2.38761 0.024 2.38761
13 28 0.024 2.38761 0.024 2.38761
13 29 0.024 2.38761 0.024 2.38761
14 14 0.024 2.38761 0.024 2.38761
14 15 0.024 2.38761 0.024 2.38761
14 16 0.024 2.38761 0.024 2.38761
14 17 0.024 2.38761 0.024 2.38761
14 18 0.024 2.38761 0.024 2.38761
14 19 0.024 2.38761 0.024 2.38761
14 20 0.024 2.38761 0.024 2.38761
14 21 0.024 2.38761 0.024 2.38761
14 22 0.024 2.38761 0.024 2.38761
14 23 0.024 2.38761 0.024 2.38761
14 24 0.024 2.38761 0.024 2.38761
14 25 0.024 2.38761 0.024 2.38761
14 26 0.024 2.38761 0.024 2.38761
14 27 0.024 2.38761 0.024 2.38761
14 28 0.024 2.38761 0.024 2.38761
14 29 0.024 2.38761 0.024 2.38761
15 15 0.024 2.38761 0.024 2.38761
15 16 0.024 2.38761 0.024 2.38761
15 17 0.024 2.38761 0.024 2.38761
15 18 0.024 2.38761 0.024 2.38761
15 19 0.024 2.38761 0.024 2.38761
15 20 0.024 2.38761 0.024 2.38761
15 21 0.024 2.38761 0.024 2.38761
15 22 0.024 2.38761 0.024 2.38761
15 23 0.024 2.38761 0.024 2.38761
15 24 0.024 2.38761 0.024 2.38761
15 25 0.024 2.38761 0.024 2.38761
15 26 0.024 2.38761 0.024 2.38761
15 27 0.024 2.38761 0.024 2.38761
15 28 0.024 2.38761 0.024 2.38761
15 29 0.024 2.38761 0.024 2.38761
16 16 0.024 2.38761 0.024 2.38761
16 17 0.024 2.38761 0.024 2.38761
16 18 0.024 2.38761 0.024 2.38761
16 19 0.024 2.38761 0.024 2.38761
16 20 0.024 2.38761 0.024 2.38761
16 21 0.024 2.38761 0.024 2.38761
16 22 0.024 2.38761 0.024 2.38761
16 23 0.024 2.38761 0.024 2.38761
16 24 0.024 2.38761 0.024 2.38761
16 25 0.024 2.38761 0.024 2.38761
16 26 0.024 2.38761 0.024 2.38761
16 27 0.024 2.38761 0.024 2.38761
16 28 0.024 2.38761 0.024 2.38761
16 29 0.024 2.38761 0.024 2.38761
17 17 0.024 2.38761 0.024 2.38761
17 18 0.024 2.38761 0.024 2.38761
17 19 0.024 2.38761 0.024 2.38761
17 20 0.024 2.38761 0.024 2.38761
17 21 0.024 2.38761 0.024 2.38761
17 22 0.024 2.38761 0.024 2.38761
17 23 0.024 2.38761 0.024 2.38761
17 24 0.024 2.38761 0.024 2.38761
17 25 0.024 2.38761 0.024 2.38761
17 26 0.024 2.38761 0.024 2.38761
17 27 0.024 2.38761 0.024 2.38761
17 28 0.024 2.38761 0.024 2.38761
17 29 0.024 2.38761 0.024 2.38761
18 18 0.024 2.38761 0.024 2.38761
18 19 0.024 2.38761 0.024 2.38761
18 20 0.024 2.38761 0.024 2.38761
18 21 0.024 2.38761 0.024 2.38761
18 22 0.024 2.38761 0.024 2.38761
18 23 0.024 2.38761 0.024 2.38761
18 24 0.024 2.38761 0.024 2.38761
18 25 0.024 2.38761 0.024 2.38761
18 26 0.024 2.38761 0.024 2.38761
18 27 0.024 2.38761 0.024 2.38761
18 28 0.024 2.38761 0.024 2.38761
18 29 0.024 2.38761 0.024 2.38761
19 19 0.024 2.38761 0.024 2.38761
19 20 0.024 2.38761 0.024 2.38761
19 21 0.024 2.38761 0.024 2.38761
19 22 0.024 2.38761 0.024 2.38761
19 23 0.024 2.38761 0.024 2.38761
19 24 0.024 2.38761 0.024 2.38761
19 25 0.024 2.38761 0.024 2.38761
19 26 0.024 2.38761 0.024 2.38761
19 27 0.024 2.38761 0.024 2.38761
19 28 0.024 2.38761 0.024 2.38761
19 29 0.024 2.38761 0.024 2.38761
20 20 0.024 2.38761 0.024 2.38761
20 21 0.024 2.38761 0.024 2.38761
20 22 0.024 2.38761 0.024 2.38761
20 23 0.024 2.38761 0.024 2.38761
20 24 0.024 2.38761 0.024 2.38761
20 25 0.024 2.38761 0.024 2.38761
20 26 0.024 2.38761 0.024 2.38761
20 27 0.024 2.38761 0.024 2.38761
20 28 0.024 2.38761 0.024 2.38761
20 29 0.024 2.38761 0.024 2.38761
21 21 0.024 2.38761 0.024 2.38761
21 22 0.024 2.38761 0.024 2.38761
21 23 0.024 2.38761 0.024 2.38761
21 24 0.024 2.38761 0.024 2.38761
21 25 0.024 2.38761 0.024 2.38761
21 26 0.024 2.38761 0.024 2.38761
21 27 0.024 2.38761 0.024 2.38761
21 28 0.024 2.38761 0.024 2.38761
21 29 0.024 2.38761 0.024 2.38761
22 22 0.024 2.38761 0.024 2.38761
22 23 0.024 2.38761 0.024 2.38761
22 24 0.024 2.38761 0.024 2.38761
22 25 0.024 2.38761 0.024 2.38761
22 26 0.024 2.38761 0.024 2.38761
22 27 0.024 2.38761 0.024 2.38761
22 28 0.024 2.38761 0.024 2.38761
22 29 0.024 2.38761 0.024 2.38761
23 23 0.024 2.38761 0.024 2.38761
23 24 0.024 2.38761 0.024 2.38761
23 25 0.024 2.38761 0.024 2.38761
23 26 0.024 2.38761 0.024 2.38761
23 27 0.024 2.38761 0.024 2.38761
23 28 0.024 2.38761 0.024 2.38761
23 29 0.024 2.38761 0.024 2.38761
24 24 0.024 2.38761 0.024 2.38761
24 25 0.024 2.38761 0.024 2.38761
24 26 0.024 2.38761 0.024 2.38761
24 27 0.024 2.38761 0.024 2.38761
24 28 0.024 2.38761 0.024 2.38761
24 29 0.024 2.38761 0.024 2.38761
25 25 0.024 2.38761 0.024 2.38761
25 26 0.024 2.38761 0.024 2.38761
25 27 0.024 2.38761 0.024 2.38761
25 28 0.024 2.38761 0.024 2.38761
25 29 0.024 2.38761 0.024 2.38761
26 26 0.024 2.38761 0.024 2.38761
26 27 0.024 2.38761 0.024 2.38761
26 28 0.024 2.38761 0.024 2.38761
26 29 0.024 2.38761 0.024 2.38761
27 27 0.024 2.38761 0.024 2.38761
27 28 0.024 2.38761 0.024 2.38761
27 29 0.024 2.38761 0.024 2.38761
28 28 0.024 2.38761 0.024 2.38761
28 29 0.024 2.38761 0.024 2.38761
29 29 0.024 2.38761 0.024 2.38761

Bond Coeffs # harmonic/omp

1 266 1.46
2 266 1.46
3 237.77 1.7096
4 580 1.48
5 237.77 1.7096
6 266 1.46
7 266 1.46
8 237.77 1.7096
9 266 1.46
10 266 1.46
11 322 1.111
12 322 1.111
13 322 1.111
14 322 1.111
15 322 1.111
16 322 1.111
17 322 1.111
18 322 1.111
19 322 1.111
20 322 1.111
21 322 1.111
22 322 1.111
23 322 1.111
24 322 1.111
25 322 1.111
26 322 1.111
27 322 1.111
28 322 1.111

Angle Coeffs # charmm/omp

1 48.69 114.29 0 0
2 110 118.3 35 2.33
3 119.54 120.64 0 0
4 119.54 120.64 0 0
5 110 118.3 35 2.33
6 110 118.3 35 2.33
7 119.54 120.64 0 0
8 110 118.3 35 2.33
9 110 118.3 35 2.33
10 51.5 107.5 0 0
11 51.5 107.5 0 0
12 51.5 107.5 0 0
13 51.5 107.5 0 0
14 51.5 107.5 0 0
15 51.5 107.5 0 0
16 51.5 107.5 0 0
17 51.5 107.5 0 0
18 51.5 107.5 0 0
19 51.5 107.5 0 0
20 51.5 107.5 0 0
21 51.5 107.5 0 0
22 51.5 107.5 0 0
23 51.5 107.5 0 0
24 51.5 107.5 0 0
25 51.5 107.5 0 0
26 51.5 107.5 0 0
27 51.5 107.5 0 0
28 119.54 120.64 0 0
29 35.5 108.4 5.4 1.802
30 35.5 108.4 5.4 1.802
31 35.5 108.4 5.4 1.802
32 35.5 108.4 5.4 1.802
33 35.5 108.4 5.4 1.802
34 35.5 108.4 5.4 1.802
35 35.5 108.4 5.4 1.802
36 119.54 120.64 0 0
37 35.5 108.4 5.4 1.802
38 35.5 108.4 5.4 1.802
39 35.5 108.4 5.4 1.802
40 35.5 108.4 5.4 1.802
41 35.5 108.4 5.4 1.802
42 110 118.3 35 2.33
43 48.69 114.29 0 0
44 119.54 120.64 0 0
45 35.5 108.4 5.4 1.802
46 35.5 108.4 5.4 1.802
47 48.69 114.29 0 0
48 35.5 108.4 5.4 1.802
49 35.5 108.4 5.4 1.802
50 35.5 108.4 5.4 1.802
51 35.5 108.4 5.4 1.802

Dihedral Coeffs # charmmfsw

1 0.6301 3 0 1
2 0.6301 3 0 1
3 0.6301 3 0 1
4 0.0665 2 180 1
5 0.0665 2 180 1
6 0.15 3 0 1
7 0.15 3 0 1
8 0.15 3 0 1
9 0.15 3 0 1
10 0.15 3 0 1
11 0.15 3 0 1
12 0.15 3 0 1
13 0.6301 3 0 1
14 0.6301 3 0 1
15 0.15 3 0 1
16 0.6301 3 0 1
17 0.15 3 0 1
18 0.6301 3 0 1
19 0.15 3 0 1
20 0.6301 3 0 1
21 0.6301 3 0 1
22 0.0665 2 180 1
23 0.0665 2 180 1
24 0.0665 2 180 1
25 0.15 3 0 1
26 0.6301 3 0 1
27 0.6301 3 0 1
28 0.0665 2 180 1
29 0.0665 2 180 1
30 0.6301 3 0 1
31 0.0665 2 180 1
32 0.0665 2 180 1
33 0.0665 2 180 1
34 0.6301 3 0 1
35 0.15 3 0 1
36 0.15 3 0 1
37 0.0665 2 180 1
38 0.6301 3 0 1
39 0.0665 2 180 1
40 0.0665 2 180 1
41 0.15 3 0 1
42 0.0665 2 180 1
43 0.0665 2 180 1
44 0.15 3 0 1
45 0.6301 3 0 1
46 0.6301 3 0 1
47 0.6301 3 0 1
48 0.6301 3 0 1
49 0.15 3 0 1
50 0.0665 2 180 1
51 0.0665 2 180 1
52 0.15 3 0 1
53 0.0665 2 180 1
54 0.15 3 0 1
55 0.1243 3 0 0
56 0.1243 3 0 0
57 0.1243 3 0 0
58 0.1243 3 0 0
59 0.1243 3 0 0
60 0.1243 3 0 0
61 0.1243 3 0 0
62 0.1243 3 0 0
63 0.1243 3 0 0
64 0.1243 3 0 0
65 0.1243 3 0 0
66 0.1243 3 0 0
67 0.1243 3 0 0
68 0.1243 3 0 0
69 0.1243 3 0 0
70 0.1243 3 0 0
71 0.1243 3 0 0
72 0.1243 3 0 0

Improper Coeffs # harmonic/omp

1 0 0
2 0 0
3 0 0
4 0 0
5 0 0
6 0 0
7 0 0
8 0 0
9 0 0
10 0 0
11 0 0
12 0 0
13 0 0
14 0 0
15 0 0
16 0 0
17 0 0

Atoms # full

415 15 9 -0.259 3.851129086230669 10.76372020445882 7.2373492177534295 0 0 0
408 15 2 -0.259 3.8153005274378913 12.82495790993845 5.374573733638546 0 0 0
1544 54 7 -0.174 10.822892346344286 8.519035905072183 5.619856868379844 0 0 1
1557 54 20 0.09 11.262541091363872 9.489252189453342 5.9811203527416295 0 0 1
981 34 24 0.09 3.571353909410501 5.435542965814894 7.134810764202034 0 1 0
970 34 13 0.09 7.949477128343455 6.064320892170585 5.649490582459018 0 1 0
427 15 21 0.09 7.002143834425672 10.247992435478356 7.198456721948993 0 0 0
1559 54 22 0.09 10.899333025448279 6.031975957055279 5.774315638550706 0 0 1
1543 54 6 -0.259 11.80504910208095 7.64812181419425 5.006400197816935 0 0 1
1555 54 18 0.09 10.427766381383513 8.028137263947453 6.499897230229968 0 0 1
412 15 6 -0.259 6.15870352401828 11.608854167263543 5.785301147881988 0 0 0
71 3 13 0.09 10.882707959279593 11.659616206699809 6.79830952306061 0 0 0
333 12 14 0.09 11.601918657210593 12.566012007518317 4.598202570069253 0 0 1
1545 54 8 -0.174 11.415831039645685 6.335354769235447 4.843241179019343 0 0 1
72 3 14 0.09 12.544589875721577 11.706819911738686 7.370602548811774 0 0 0
59 3 1 -0.174 11.510595903781654 11.822890689214782 7.758345684943854 0 0 0
6100 211 10 -0.174 3.6846139298440286 6.621486917197528 4.069558371452142 1 1 0
978 34 21 0.09 8.680900614335393 3.6646867930933738 6.262111150195108 0 1 0
410 15 4 1.058 4.49982466309375 11.331193779774098 5.782714538930363 0 0 0
411 15 5 -0.857 4.196963892432805 10.31937211014612 4.718342771713338 0 0 0
435 15 29 0.09 4.325453168966239 8.744648067984322 6.693163159748902 0 0 0
6114 211 24 0.09 3.947619099566546 7.6287633706230755 4.54967373255409 1 1 0
1560 54 23 0.09 12.355277171548344 5.712224309161984 4.704512070087104 0 0 1
958 34 1 -0.174 7.934445599706263 6.7940750039275155 6.441108997799765 0 1 0
965 34 8 -0.174 8.90599281039908 3.8415814741228145 7.357593378794942 0 1 0
1556 54 19 0.09 9.90285575757851 8.759883862700665 5.002214592562248 0 0 1
6116 211 26 0.09 4.538263224124726 5.843965582161492 4.2561509206864985 1 1 0
4339 150 18 0.09 7.604066014134992 7.5590861631696855 3.407511436848823 1 0 1
1558 54 21 0.09 10.89596533701327 6.174605688653202 3.8723409437729286 0 0 1
417 15 11 -0.174 4.12759606937491 9.346841377384209 7.5701862893328435 0 0 0
971 34 14 0.09 8.92531473213286 6.730903555568835 7.037454182906316 0 1 0
414 15 8 -0.174 7.01713398060579 10.50307379833574 6.078895574985993 0 0 0
962 34 5 -0.857 6.08000888274026 4.368388144776924 6.051326492574889 0 1 0
969 34 12 0.09 7.835089410384784 7.839163860186325 6.033985218662692 0 1 0
429 15 23 0.09 6.641312308151527 9.704870800591978 5.447288731553209 0 0 0
428 15 22 0.09 8.042551651633353 10.83002456483462 5.861140938196698 0 0 0
6105 211 15 0.09 4.071250482471467 3.835829821503041 5.205242731977395 1 1 0
961 34 4 1.058 6.440031618808819 4.826873745332378 7.415380396590871 0 1 0
1541 54 4 1.058 12.842352042241204 8.243680484783479 3.8747832209216972 0 0 1
959 34 2 -0.259 6.890870401804879 6.4193828345341375 7.383139778612941 0 1 0
980 34 23 0.09 9.415377356681429 4.742213649378828 7.529903740700156 0 1 0
982 34 25 0.09 4.565182327229703 6.625789907597126 7.955835469162088 0 1 0
340 12 21 0.09 9.147911776494714 12.613931349061318 3.9822746446252837 0 0 1
426 15 20 0.09 7.592732072977678 12.626655320114407 6.73218799979868 0 0 0
4340 150 19 0.09 7.923559065036444 5.772337935212974 3.342723596744592 1 0 1
332 12 13 0.09 12.70985432051641 12.673439797165386 3.2279523521170024 0 0 1
5602 194 5 -0.857 5.885099195072366 10.048938252320418 11.044917027158098 1 0 0
5306 183 28 0.09 4.819090020044571 6.6678651579822255 11.564425796645871 1 0 0
75 3 17 0.09 9.506944390214766 10.052841933155502 9.746103187336814 0 0 0
964 34 7 -0.174 7.949966208177093 4.008820752080226 9.529809762524879 0 1 0
67 3 9 -0.259 11.608561566182512 9.02570429267556 10.755395598050717 0 0 0
4003 139 1 -0.174 12.785472786898682 4.882546289825693 11.38635255739714 0 1 0
968 34 11 -0.174 4.443301322639983 3.4163473631594807 8.557304581529324 0 1 0
5620 194 23 0.09 8.484211817489662 10.27166663297076 12.164779939163685 1 0 0
70 3 12 0.09 11.479858046279958 12.849570320816108 8.16361998682894 0 0 0
82 3 24 0.09 10.836887643856643 7.145083141733302 10.752260774764112 0 0 0
975 34 18 0.09 7.097072563343268 3.744919534864151 10.141795346230543 0 1 0
972 34 15 0.09 6.929468080148371 8.26302947627522 8.323888893340264 0 1 0
73 3 15 0.09 9.129274666612648 10.854919792003503 8.157048828783669 0 0 0
62 3 4 1.058 12.207319501216352 10.3798908934935 9.9070894866961 0 0 0
974 34 17 0.09 6.460218992524986 6.880331211357245 9.358963703506957 0 1 0
5289 183 11 -0.174 4.268294015124439 5.702260650906737 11.489290692627725 1 0 0
4016 139 14 0.09 12.263253480441811 5.501370044794304 10.606890504688353 0 1 0
4007 139 5 -0.857 9.80195023112541 5.103959535816971 11.58454480606939 0 1 0
69 3 11 -0.174 12.503186168408567 8.512505137409965 11.780936568521685 0 0 0
4004 139 2 -0.259 12.204659490998244 4.886380312555885 12.739114946247614 0 1 0
5601 194 4 1.058 5.643112616729919 10.895010558976454 12.254422227410595 1 0 0
78 3 20 0.09 10.481582940565943 11.98746542508741 11.517681461036073 0 0 0
65 3 7 -0.174 11.435468937656992 11.796807840990253 12.046112714963611 0 0 0
86 3 28 0.09 11.904810000732219 7.818257598435552 12.396923323530947 0 0 0
74 3 16 0.09 9.482876397685803 11.789253709526784 9.70813165089266 0 0 0
976 34 19 0.09 8.214954559646134 5.068985786544878 9.776026091316137 0 1 0
5287 183 9 -0.259 4.317999555921043 5.058578498182848 12.793811269945857 1 0 0
64 3 6 -0.259 12.458410742471536 11.553369445085988 11.054118678332921 0 0 0
5599 194 2 -0.259 5.71551743291453 12.536204396249557 11.82932537031654 1 0 0
966 34 9 -0.259 5.039539055270879 4.706918708761382 8.328058356933896 0 1 0
61 3 3 -0.174 9.752791742391373 10.900428924460334 9.052465337026293 0 0 0
973 34 16 0.09 8.130968889348537 7.24659107900702 9.002628150651299 0 1 0
963 34 6 -0.259 7.669035498279233 3.8819078535230567 8.078382060484204 0 1 0
83 3 25 0.09 12.038014090317837 7.434451348571147 9.470614564827878 0 0 0
68 3 10 -0.174 11.184867035370502 7.8888599709088165 10.041632965312255 0 0 0
416 15 10 -0.174 3.980635711296862 11.538728717727917 8.457247542766568 0 0 0
960 34 3 -0.174 7.114888311566791 7.189917721844909 8.611175345081671 0 1 0
5606 194 9 -0.259 4.077524260311041 10.515555184846338 12.760915314412772 1 0 0
5305 183 27 0.09 4.823143382377879 4.925057709046759 10.819918009494891 1 0 0
430 15 24 0.09 5.053897677430935 11.772128195993034 8.579312912992695 0 0 0
84 3 26 0.09 10.450500293997706 8.095584648536157 9.276144217985122 0 0 0
60 3 2 -0.259 11.0969828024793 10.849719274129406 8.732215153731026 0 0 0
431 15 25 0.09 3.690728769097041 10.908446295085522 9.359101622622445 0 0 0
77 3 19 0.09 11.370263174442504 10.95176536894797 12.76649527775704 0 0 0
967 34 10 -0.174 4.033221740086847 5.679952193474833 8.043656145507802 0 1 0
985 34 28 0.09 3.721295561831745 3.5583341726766666 9.364998310059692 0 1 0
432 15 26 0.09 3.276100888222222 12.42308795584531 8.505594367511334 0 0 0
5624 194 27 0.09 3.6396333703536508 8.637536954340462 12.008130600344774 1 0 0
5609 194 12 0.09 6.8607220747418705 12.206465433813715 9.997682083044399 1 0 0
977 34 20 0.09 8.830869346603613 3.3843290584733463 9.759474705541512 0 1 0
76 3 18 0.09 11.720585725816015 12.824705563198574 12.567983394794544 0 0 0
434 15 28 0.09 4.963043578936887 9.266953831482354 8.35821724287775 0 0 0
5303 183 25 0.09 6.389396937097942 4.926104090849211 12.528033295657986 1 0 0
983 34 26 0.09 3.2374864309889992 5.67820422588043 8.843297914657047 0 1 0
433 15 27 0.09 3.273439491294186 8.996635077380866 8.038860232570318 0 0 0
4006 139 4 1.058 10.498052604707627 4.624921585202032 12.850837579202274 0 1 0
999 35 13 0.09 8.574800626664889 11.037820378172341 17.425922757501883 0 1 0
4012 139 10 -0.174 9.775568782832782 6.870385788914932 13.97572053991591 0 1 0
994 35 8 -0.174 6.661088718080352 7.0822110950164365 16.52110399621399 0 1 0
5617 194 20 0.09 6.587660320738747 11.81450702402385 15.119565785802031 1 0 0
4026 139 24 0.09 10.823814779942278 7.2674964178428985 13.905091622947085 0 1 0
5435 188 12 0.09 10.836793591324135 10.305578601857235 15.905246732755282 1 0 0
1008 35 22 0.09 6.841997045195043 8.109093309502562 16.05179617009143 0 1 0
5649 195 23 0.09 3.437330159123506 7.781078185631468 16.14170569678547 1 0 0
5436 188 13 0.09 11.462767749785815 11.755510107436931 14.844690028602304 1 0 0
5282 183 4 1.058 3.534176100419389 3.5938301532541828 13.031214624514844 1 0 0
5442 188 19 0.09 12.537531272948357 7.165269334510368 16.573096250406397 1 0 0
4018 139 16 0.09 12.747557440538948 3.515521884147279 14.093262847232552 0 1 0
4013 139 11 -0.174 10.168289299351251 5.009009415355674 15.439613112973564 0 1 0
4011 139 9 -0.259 9.83385448885624 5.471721142335419 14.132914901182254 0 1 0
1005 35 19 0.09 6.816890293381979 4.855669323416427 17.644204751060037 0 1 0
5288 183 10 -0.174 5.668309977132643 5.233425715284913 13.370147054080743 1 0 0
5424 188 1 -0.174 11.289586905297261 11.297317172927785 15.857207290745276 1 0 0
5615 194 18 0.09 7.402933259537438 10.248352074008395 15.339790626322252 1 0 0
5648 195 22 0.09 3.7954362305433307 9.621358961025084 15.850317531161423 1 0 0
5616 194 19 0.09 5.5811861875753 10.31840176783744 15.042631033992578 1 0 0
5304 183 26 0.09 5.790728018509295 4.753717729428353 14.403718500892364 1 0 0
5302 183 24 0.09 5.909300629095611 6.3445088393922955 13.382251247182236 1 0 0
5603 194 6 -0.259 6.890192731743072 10.640195295122078 13.437313898497932 1 0 0
5441 188 18 0.09 12.754545622034442 8.658295347620264 15.664461511174189 1 0 0
4027 139 25 0.09 9.212485131423277 7.287852540895562 14.861962724869791 0 1 0
5647 195 21 0.09 4.205572911103929 8.75016713978453 17.328226941818187 1 0 0
5425 188 2 -0.259 12.56021021903008 11.337686478373115 16.585457710835165 1 0 0
5618 194 21 0.09 8.916708750136578 10.375545492883619 13.93394589943611 1 0 0
5604 194 7 -0.174 6.599479324150791 10.758349177309505 14.80836014038784 1 0 0
5437 188 14 0.09 10.522967013521656 11.93597218325247 16.374000968547797 1 0 0
1007 35 21 0.09 7.1433876927122135 6.374779090708511 15.84409397602284 0 1 0
5608 194 11 -0.174 3.8614116604331374 9.128249794682874 13.006183037252288 1 0 0
4030 139 28 0.09 9.713066142524344 5.7327009237647175 16.165482378922885 0 1 0
4031 139 29 0.09 11.247572416022411 4.946771658222809 15.675921307936564 0 1 0
4029 139 27 0.09 9.549332795920341 4.067022269729766 15.747629507618099 0 1 0
1009 35 23 0.09 5.642289593081404 6.69343533149328 16.559651017113868 0 1 0