LAMMPS data file via write_data, version 29 Aug 2024, timestep = 1000000, units = real

5831 atoms
17 atom types
5488 bonds
16 bond types
10290 angles
30 angle types
14406 dihedrals
42 dihedral types

2.0040914206815117 42.99590857931342 xlo xhi
2.0040914206815117 42.99590857931342 ylo yhi
2.0040914206815117 42.99590857931342 zlo zhi

Masses

1 12.011
2 12.011
3 12.011
4 12.011
5 12.011
6 18.998
7 1.008
8 1.008
9 1.008
10 1.008
11 1.008
12 1.008
13 1.008
14 1.008
15 1.008
16 1.008
17 1.008

Pair Coeffs # lj/charmmfsw/coul/long

1 0.078 3.65268 0.01 3.38542
2 0.055999 3.58141 0.01 3.38542
3 0.055999 3.58141 0.01 3.38542
4 0.055999 3.58141 0.01 3.38542
5 0.06 3.38542 0.06 3.38542
6 0.135 2.90433 0.135 2.90433
7 0.024001 2.38761 0.024001 2.38761
8 0.024001 2.38761 0.024001 2.38761
9 0.024001 2.38761 0.024001 2.38761
10 0.035 2.38761 0.035 2.38761
11 0.035 2.38761 0.035 2.38761
12 0.035 2.38761 0.035 2.38761
13 0.035 2.38761 0.035 2.38761
14 0.035 2.38761 0.035 2.38761
15 0.035 2.38761 0.035 2.38761
16 0.028 2.35197 0.028 2.35197
17 0.028 2.35197 0.028 2.35197

Bond Coeffs # harmonic

1 222.5 1.528
2 222.5 1.53
3 222.5 1.53
4 170 1.52
5 420 1.374
6 322 1.111
7 322 1.111
8 322 1.111
9 309 1.111
10 309 1.111
11 309 1.111
12 309 1.111
13 309 1.111
14 309 1.111
15 342 1.0828
16 342 1.0828

Angle Coeffs # charmm

1 58 115 8 2.561
2 58.35 113.6 11.16 2.561
3 56.89 113.81 8 2.5
4 44 112 30 2.369
5 34.6 110.1 22.53 2.179
6 34.6 110.1 22.53 2.179
7 34.6 110.1 22.53 2.179
8 34.6 110.1 22.53 2.179
9 34.6 110.1 22.53 2.179
10 26.5 110.1 22.53 2.179
11 26.5 110.1 22.53 2.179
12 26.5 110.1 22.53 2.179
13 26.5 110.1 22.53 2.179
14 31 112 3 2.168
15 31 112 3 2.168
16 34.6 110.1 22.53 2.179
17 35.5 108.4 10.4 1.746
18 35.5 109 5.4 1.802
19 57.5 108.89 5 1.997
20 35.5 108.4 5.4 1.802
21 26.5 110.1 22.53 2.179
22 35.5 109 5.4 1.802
23 34.6 110.1 22.53 2.179
24 35.5 108.4 5.4 1.802
25 57.5 108.89 5 1.997
26 35.5 109 5.4 1.802
27 26.5 110.1 22.53 2.179
28 35.5 108.4 5.4 1.802
29 26.5 110.1 22.53 2.179
30 26.5 110.1 22.53 2.179

Dihedral Coeffs # charmmfsw

1 0.15051 2 0 1
2 0.06 2 0 1
3 0.34 3 180 1
4 0.16 3 0 1
5 0.195 3 0 1
6 0.22 3 0 1
7 0.22 3 0 1
8 0.16 3 0 1
9 0.185 3 0 1
10 0.185 3 0 1
11 0.22 3 0 1
12 0.22 3 0 1
13 0.22 3 0 1
14 0.18 3 0 1
15 0.185 3 0 1
16 0.195 3 0 1
17 0.05 3 0 1
18 0.05 3 0 1
19 0.22 3 0 1
20 0.22 3 0 1
21 0.16 3 0 1
22 0.16 3 0 1
23 0.16 3 0 1
24 0.16 3 0 1
25 0.02 3 180 1
26 0.185 3 0 1
27 0.22 3 0 1
28 0.16 3 0 1
29 0.16 3 0 1
30 0.195 3 0 1
31 0.18 3 0 1
32 0.185 3 0 1
33 0.195 3 0 1
34 0.16 3 0 1
35 0.02 3 180 1
36 0.185 3 0 1
37 0.08133 3 180 0
38 0.10824 4 0 0
39 0.20391 5 0 0
40 0.15 3 180 0
41 0.09 4 0 0
42 0.11 5 0 0

Atoms # full

5393 318 4 -0.206 12.188526918159326 5.8435970043956775 9.507175965920492 1 0 0
5404 318 15 0.09 11.914419365330158 5.221582824129506 10.388985337524225 1 0 0
5391 318 2 -0.177 10.890943796909568 7.233477715645904 11.179725772215814 1 0 0
5403 318 14 0.09 11.494732774885914 5.665821017549494 8.648721195901983 1 0 0
5377 317 5 0.07199999999999999 7.859800131376125 3.9642122790053067 8.288524692699056 0 1 -2
5396 318 7 0.09 9.186802958927903 6.039870175004141 10.530522780598503 1 0 0
5390 318 1 -0.273 9.407233303972435 7.058512588148589 10.807505437812717 1 0 0
5397 318 8 0.09 9.204995225664767 7.699193886706015 9.906555072345839 1 0 0
5376 317 4 -0.206 8.03107358873378 5.320658557989919 7.834757797277789 0 1 -2
5386 317 14 0.09 7.493387368069439 6.111392519542231 8.58672279130672 0 1 -2
5388 317 16 0.078 8.453541283968999 3.370773242571225 7.5661087181227344 0 1 -2
5387 317 15 0.09 9.114679192977839 5.659845918841594 7.720890251422511 0 1 -2
1324 78 15 0.09 4.923540552053968 6.336314389372052 11.336529254614918 -1 -2 -2
229 14 8 0.09 12.16817878391375 14.727625115611552 5.707120286362567 -1 2 1
5399 318 10 0.09 11.230500092587054 6.51603548569867 11.946674691182828 1 0 0
5529 326 4 -0.206 12.109160644427138 7.945407699658 4.39308608342802 -1 -1 -3
2585 153 1 -0.273 11.638591046563972 4.197468814088104 5.432269913705705 -2 -1 -1
3310 195 12 0.09 10.669620758716105 2.9027322612782553 11.245976232384159 -1 0 2
5374 317 2 -0.177 7.885363133404943 4.794590008788533 5.215830551310846 0 1 -2
5378 317 6 -0.209 8.410829859041646 3.871200682378375 9.536571091232402 0 1 -2
5375 317 3 -0.173 7.391437723494322 5.727534447016266 6.414249599846158 0 1 -2
2199 130 6 -0.209 2.9705005338683237 4.135505244478818 7.26643848980839 0 2 0
1313 78 4 -0.206 5.707642776267138 5.5695993766738265 11.653517373814822 -1 -2 -2
1323 78 14 0.09 6.701754406332089 5.940230781455575 11.308542670998126 -1 -2 -2
1315 78 6 -0.209 4.9303244986670025 4.200250321765534 9.802629449764702 -1 -2 -2
5389 317 17 0.078 6.879704128396324 3.615091462842349 8.36401026459891 0 1 -2
2741 162 4 -0.206 6.044102585875888 9.123428605541847 11.253001128033619 1 1 0
5392 318 3 -0.173 11.949875039793138 7.237842921873659 10.104201389055175 1 0 0
2376 140 13 0.09 7.458782217414074 13.56255374048237 11.734040883054707 3 2 -2
5542 326 17 0.078 11.223082856790663 9.591438720407655 5.604751565058434 -1 -1 -3
3746 221 6 -0.209 6.129058647143683 3.1275577345535073 2.092515785450233 -1 -1 -2
1326 78 17 0.078 5.940353009015343 3.3358220252609465 11.300609485950982 -1 -2 -2
1174 70 1 -0.273 9.340386544052684 10.92997068068018 2.259901261771183 3 6 3
231 14 10 0.09 10.51951014770317 14.085291841232001 7.276085288489915 -1 2 1
2743 162 6 -0.209 6.4524058874774495 9.300263686352555 8.937221809744361 1 1 0
4086 241 6 -0.209 11.669404939850923 5.037516253501147 2.0838340638226356 -2 3 -3
3986 235 8 0.09 2.4417493268259123 8.574228950532449 6.375589047718791 0 2 3
5757 339 11 0.09 3.841809185401522 8.307791753124242 2.351786419539384 -1 1 -1
2364 140 1 -0.273 10.646022349717764 14.9973196233322 11.803875835504096 3 2 -2
5540 326 15 0.09 11.940811787721206 7.498719656466664 3.405447620751556 -1 -1 -3
1314 78 5 0.07199999999999999 5.230920478382302 4.15793156453574 11.127262579140213 -1 -2 -2
5384 317 12 0.09 6.306930498019814 5.665146228443319 6.430476529258792 0 1 -2
3995 235 17 0.078 3.3222988376053175 12.783285686356207 7.6910068355201195 0 2 3
5402 318 13 0.09 11.809049592510515 7.985242071206802 9.271876940173419 1 0 0
1513 89 17 0.078 2.216654902802327 14.33771107293724 4.439268205574934 0 2 1
1325 78 16 0.078 4.291526835711299 3.905268108253015 11.630229683696124 -1 -2 -2
5382 317 10 0.09 9.001098764638316 4.745604488509116 5.405745661171874 0 1 -2
1181 70 8 0.09 10.132330677771455 11.285802482895756 2.891611952529421 3 6 3
225 14 4 -0.206 9.27434845797034 11.485126969233853 7.812187939686062 -1 2 1
5383 317 11 0.09 7.443311589791329 3.7667812247230525 5.197362932215629 0 1 -2
5380 317 8 0.09 6.864064017736277 6.128495707181681 3.909723094248736 0 1 -2
238 14 17 0.078 11.073854142849036 10.11838038445953 7.921543838953005 -1 2 1
2210 130 17 0.078 2.3101234648098465 5.352091210969868 8.706111449212539 0 2 0
2365 140 2 -0.177 9.509906947728448 14.051994624832226 12.109667247917635 3 2 -2
226 14 5 0.07199999999999999 10.425785013267342 10.757339879517923 8.543513659988356 -1 2 1
2752 162 15 0.09 6.210325579627478 8.033107563493676 11.217226052390304 1 1 0
235 14 14 0.09 8.57873742202266 10.675601209481778 7.521814386220068 -1 2 1
2371 140 8 0.09 10.78596859641709 15.096144468968333 10.724271453171653 3 2 -2
3983 235 5 0.07199999999999999 2.8433531819460054 12.630869327311355 8.666419947931953 0 2 3
5385 317 13 0.09 7.644657135659662 6.781959071576874 6.188405244998981 0 1 -2
1500 89 4 -0.206 3.8904949406632623 13.295202639652889 4.732318647418895 0 2 1
5373 317 1 -0.273 7.738245247439701 5.462457819001783 3.871235269927795 0 1 -2
3985 235 7 0.09 2.141022200318469 7.3858776152671215 7.82208931056205 0 2 3
3991 235 13 0.09 3.762136179410134 9.187754945467928 9.033736446090423 0 2 3
2748 162 11 0.09 8.293699655213867 10.357535035752845 12.132528019329762 1 1 0
5755 339 9 0.09 3.162987187028326 5.4520822274101395 3.229818064962074 -1 1 -1
2592 153 8 0.09 11.592555610838028 5.026428256438608 6.097153193623899 -2 -1 -1
5398 318 9 0.09 8.671259394011022 7.326140079713571 11.653385628251932 1 0 0
224 14 3 -0.173 9.833987862208993 12.19185764869389 6.537988597194054 -1 2 1
2209 130 16 0.078 2.1147595535535615 3.628672407475289 9.005908803875723 0 2 0
1182 70 9 0.09 8.756729391616616 10.14208745434031 2.835334880831377 3 6 3
2587 153 3 -0.173 11.695387445655298 2.606586148406067 7.384727910913275 -2 -1 -1
5381 317 9 0.09 7.766627802804661 4.781159718440154 3.048671061060089 0 1 -2
3981 235 3 -0.173 3.2883828336756533 10.082534667263607 8.556935220899286 0 2 3
1499 89 3 -0.173 4.737803205702434 13.731336516158965 3.583004613851563 0 2 1
2366 140 3 -0.173 8.136476931329504 14.444340993690231 11.520051888569002 3 2 -2
3984 235 6 -0.209 3.025564238704369 13.825526487289677 9.437397530540728 0 2 3
3982 235 4 -0.206 3.3507597765632715 11.408126258167872 9.386740564211024 0 2 3
234 14 13 0.09 9.02304657138777 12.592183720455626 5.911548164476281 -1 2 1
2198 130 5 0.07199999999999999 2.0882879968645596 4.410372076590029 8.271416471123771 0 2 0
1510 89 14 0.09 4.126595071962712 13.930859663808157 5.641049004733201 0 2 1
3992 235 14 0.09 4.363947999663425 11.633161819736504 9.647769526713432 0 2 3
2380 140 17 0.078 6.908525443575867 13.027713922155145 9.493408423310672 3 2 -2
2367 140 4 -0.206 8.101770018285773 14.744394074923509 10.033262517721104 3 2 -2
2368 140 5 0.07199999999999999 6.923246935299497 14.104156684903584 9.400698383270875 3 2 -2
232 14 11 0.09 11.840898325941456 12.962504613105041 7.158777533217775 -1 2 1
2751 162 14 0.09 4.927609374671629 9.28076844183742 11.107289650364558 1 1 0
5754 339 8 0.09 4.347735738799754 6.488248930761051 4.143527601638608 -1 1 -1
3990 235 12 0.09 3.8250993033685594 10.201860291367574 7.646991292166805 0 2 3
5753 339 7 0.09 2.6376011079459394 6.916086502713157 4.015965447710672 -1 1 -1
5541 326 16 0.078 11.121293221434742 9.776804938680929 3.935016200071937 -1 -1 -3
1501 89 5 0.07199999999999999 2.4074975918054644 13.248990077302997 4.572610120110237 0 2 1
228 14 7 0.09 11.50525559754279 13.400776972336992 4.680510963439424 -1 2 1
2594 153 10 0.09 10.996445965154042 2.1598250970802515 5.308406956955892 -2 -1 -1
2369 140 6 -0.209 6.796881114785591 14.438038934071475 8.108492754008246 3 2 -2
233 14 12 0.09 10.29783455135971 11.489336735931234 5.8300400794435525 -1 2 1
3301 195 3 -0.173 11.199353394867133 2.011551160851068 11.557669614632989 -1 0 2
5539 326 14 0.09 12.051658895534676 7.040982573598229 5.095586563227192 -1 -1 -3
2379 140 16 0.078 5.95244309206643 14.367348762290163 9.79567879738667 3 2 -2
2593 153 9 0.09 11.036690501503202 4.46522117645141 4.493021157872729 -2 -1 -1
2742 162 5 0.07199999999999999 6.683346875735907 9.894384971997464 10.111028434477277 1 1 0
5400 318 11 0.09 10.924489601669377 8.177885942864805 11.805751341604374 1 0 0
5530 326 5 0.07199999999999999 11.056556852596398 9.047615934513015 4.729246085697946 -1 -1 -3
5747 339 1 -0.273 3.4912070271052285 6.532494443855559 3.428619345255006 -1 1 -1
5379 317 7 0.09 8.631807293305645 6.180279758195309 3.7988267052384708 0 1 -2
3993 235 15 0.09 2.776488437935982 11.254279656716857 10.338117268466494 0 2 3
5531 326 6 -0.209 9.818107697631785 8.502275444265951 4.667322130232548 -1 -1 -3
1508 89 12 0.09 4.5714518375573086 14.786730664149383 3.3534900449077294 0 2 1
223 14 2 -0.177 10.860353099550581 13.280175989059739 6.708102553848083 -1 2 1
227 14 6 -0.209 9.968251439511238 10.036793807740551 9.63324259478764 -1 2 1
2753 162 16 0.078 7.740479481652192 9.915288294264819 10.221948022513834 1 1 0
2375 140 12 0.09 7.891039198233872 15.403783562148579 11.985526819299286 3 2 -2
236 14 15 0.09 8.801399686467029 12.182246029018932 8.482017186544645 -1 2 1
2377 140 14 0.09 9.026785315330434 14.371385276301185 9.531740154284478 3 2 -2
1498 89 2 -0.177 4.515979990210166 12.90740641013883 2.2559259594121506 0 2 1
222 14 1 -0.273 11.209428416439113 14.111809327822769 5.450112602867483 -1 2 1
1509 89 13 0.09 5.768204050281393 13.722906974364713 3.9067531107684164 0 2 1
237 14 16 0.078 11.079598240926986 11.519827379367749 8.922444491963063 -1 2 1
1511 89 15 0.09 4.145843041373989 12.246722779557153 4.986875383661525 0 2 1
2754 162 17 0.078 6.271469770353772 10.861980965080736 10.078437262540435 1 1 0
3307 195 9 0.09 8.52772594548416 2.0220716790318702 11.984285215908786 -1 0 2
2586 153 2 -0.177 11.024507803494725 2.9695944717857543 6.0635119234197035 -2 -1 -1
2374 140 11 0.09 9.762661844802034 13.066925807827102 11.634842355928349 3 2 -2
1497 89 1 -0.273 4.921570104976466 11.435768236971436 2.348644439877264 0 2 1
230 14 9 0.09 10.317849675101018 14.668097183011144 5.191005824784167 -1 2 1
5748 339 2 -0.177 3.533516404035425 7.274137262217524 2.1088280563243655 -1 1 -1
2596 153 12 0.09 11.549914574691813 3.4233152155313693 8.046822386442996 -2 -1 -1
1504 89 8 0.09 4.404271431698929 10.875980890050295 3.0556475966743752 0 2 1
1505 89 9 0.09 5.995970622406098 11.336664707183987 2.4726737892461457 0 2 1
2595 153 11 0.09 9.888557929097004 3.1650676728026292 6.202171027971637 -2 -1 -1
2372 140 9 0.09 11.640843713555162 14.663325433402777 12.237577922377696 3 2 -2
5639 332 12 0.09 2.129559380473684 15.516796276547785 17.478113505120046 0 -2 2
5094 300 11 0.09 11.957617576386191 5.908511370998091 19.917020138607505 2 1 -2
983 58 14 0.09 9.656754100581013 7.744235325120739 18.357989553474784 -4 -2 0
971 58 2 -0.177 6.909985055494888 7.451098388048623 16.245926251399915 -4 -2 0
981 58 12 0.09 7.68444437362397 6.577354721607072 18.287046710885264 -4 -2 0
1145 68 6 -0.209 3.322916498764724 11.317985607698871 15.769121973647522 2 -1 2
4370 258 1 -0.273 5.471251433832153 4.208661870574147 19.061158798043515 0 1 1
4378 258 9 0.09 5.520426596437368 4.690760659468961 20.069812281090396 0 1 1
4376 258 7 0.09 5.534349438213526 5.019844737530242 18.314743041343423 0 1 1
4649 274 8 0.09 8.275691162405405 7.127803131434626 21.028922573443964 0 2 -1
4377 258 8 0.09 6.460642438629718 3.791990458938308 18.789046706408953 0 1 1
972 58 3 -0.173 7.751819399746926 7.422355539683157 17.570869484945852 -4 -2 0
1321 78 12 0.09 5.900914929285306 6.581566161305415 13.468136333412405 -1 -2 -2
974 58 5 0.07199999999999999 9.918142813563655 6.331541637477691 16.713958070339068 -4 -2 0
4385 258 16 0.078 3.9325769507254438 3.557536636457696 21.15760939478406 0 1 1
982 58 13 0.09 7.413338283179327 8.33364721169115 18.103372698630555 -4 -2 0
5091 300 8 0.09 11.710000767721489 3.3837613712694554 19.94799488616264 2 1 -2
973 58 4 -0.206 9.237851365485172 7.618466388950671 17.327042572815607 -4 -2 0
2749 162 12 0.09 5.904871844002454 10.630709686478477 12.78060686510857 1 1 0
5301 312 14 0.09 2.8542285145312274 14.233148067929898 20.657444728976994 0 2 -1
4373 258 4 -0.206 2.5159913014796276 4.387430609458138 19.841392275189534 0 1 1
4650 274 9 0.09 6.736036260547087 6.493570177145515 20.294750356572543 0 2 -1
1320 78 11 0.09 6.513091541366015 3.438183307826453 13.348314953234633 -1 -2 -2
4371 258 2 -0.177 4.3827457221007435 3.1047367820770635 18.785969069697785 0 1 1
984 58 15 0.09 9.460440254756241 8.422918646360877 16.690101475616522 -4 -2 0
4384 258 15 0.09 2.9138665368361867 5.434191091566298 19.7008244078406 0 1 1
4642 274 1 -0.273 7.377619359013487 6.467329907281648 21.167116741377782 0 2 -1
975 58 6 -0.209 9.562324811985519 5.1611028470597455 17.32747181246731 -4 -2 0
3373 199 7 0.09 2.2046295811067904 8.455172986513638 20.01918337756927 2 0 1
986 58 17 0.078 9.655847284401883 6.280569625581848 15.66487859289401 -4 -2 0
985 58 16 0.078 11.012628643837598 6.517764241481521 16.797070087287594 -4 -2 0
1318 78 9 0.09 8.331281962667466 4.477598244369917 12.344637085264658 -1 -2 -2
5525 325 17 0.078 10.983697456065382 15.209565385239241 19.613397362693284 1 1 -2
4648 274 7 0.09 7.670326192967767 5.391983582607811 21.27852248665042 0 2 -1
1317 78 8 0.09 8.522591369444845 5.712838629537749 13.617561112357839 -1 -2 -2
4380 258 11 0.09 4.601040559846851 2.678069131738169 17.729044955557725 0 1 1
979 58 10 0.09 6.892437502828465 8.444104202343683 15.779389814042101 -4 -2 0
980 58 11 0.09 7.35483603490647 6.753481492047657 15.559886686996231 -4 -2 0
1311 78 2 -0.177 6.656261998551593 4.532509675892079 13.770715356238885 -1 -2 -2
5637 332 10 0.09 4.376872138330127 15.018076009443206 16.577454735122416 0 -2 2
1310 78 1 -0.273 8.091188889196196 4.739296011803225 13.347995770385168 -1 -2 -2
2420 143 6 -0.209 11.532032835856489 7.761702059787433 14.390212021826692 3 -2 2
5040 297 8 0.09 10.09714619131584 15.32828470639475 17.121117947410205 0 0 -3
5092 300 9 0.09 11.54906086540227 3.9495215584125383 21.642333586816296 2 1 -2
976 58 7 0.09 4.922815872666511 7.693787774169351 17.17691521364601 -4 -2 0
1155 68 16 0.078 2.671576297432581 12.968495055875634 16.630796871135367 2 -1 2
970 58 1 -0.273 5.418664931017775 7.100565509667433 16.420477602159178 -4 -2 0
977 58 8 0.09 5.113462475818839 5.988144620146807 16.368154951759173 -4 -2 0
1312 78 3 -0.173 5.588108651768076 5.585772977468418 13.127830582591956 -1 -2 -2
978 58 9 0.09 4.888950650139506 7.518550431876169 15.59473943336247 -4 -2 0
1319 78 10 0.09 6.629212689333736 4.528871452398983 14.852359045109665 -1 -2 -2
2373 140 10 0.09 9.469994498974225 13.883642499635018 13.206029733859012 3 2 -2
4379 258 10 0.09 4.419805907761377 2.1799902750566527 19.365700643605756 0 1 1
5638 332 11 0.09 3.123773673541252 14.431305011749851 15.547379882252887 0 -2 2
779 46 14 0.09 11.594090480297695 7.959397929673825 21.585322910697084 0 1 2
5629 332 2 -0.177 3.6041976663117197 15.38005207282767 15.8665438934176 0 -2 2
5033 297 1 -0.273 9.700943362369912 14.296136512697132 16.81427457866522 0 0 -3
4372 258 3 -0.173 2.953590024520643 3.640128815102125 18.655106814904848 0 1 1
771 46 6 -0.209 9.419190637413694 9.963141846414501 22.24504504272994 0 1 2
2739 162 2 -0.177 7.862344821559807 9.829466204572059 13.027015492416371 1 1 0
5513 325 5 0.07199999999999999 11.910622369626276 14.646724924788654 19.816850635673497 1 1 -2
5043 297 11 0.09 11.01681129059802 12.782413598207505 17.902744121129672 0 0 -3
5042 297 10 0.09 10.170356688414596 12.311293099636092 16.400835261738365 0 0 -3
2750 162 13 0.09 5.809155752497075 9.138859374824726 13.405798069940037 1 1 0
5514 325 6 -0.209 11.792597097250004 13.59082314688979 20.70715190423731 1 1 -2
2747 162 10 0.09 8.305438983449415 8.832407469088167 13.109146043558264 1 1 0
4653 274 12 0.09 5.296506487591136 8.304508471446571 21.677097653967323 0 2 -1
672 40 9 0.09 9.394779595833487 15.109281602838955 22.138760480922656 -1 -1 1
1153 68 14 0.09 5.35403024228056 11.469176560114152 17.318324905649842 2 -1 2
1146 68 7 0.09 7.041771952404944 13.829037742801576 21.26221161774178 2 -1 2
770 46 5 0.07199999999999999 10.744857585105779 9.975649428074167 21.854520664368955 0 1 2
1156 68 17 0.078 2.6544552984565875 11.633226013717735 17.60204358771464 2 -1 2
2745 162 8 0.09 7.871958856405212 10.04097090049541 15.121467226061034 1 1 0
2746 162 9 0.09 7.481307779124998 11.53708512791212 14.290562058084118 1 1 0
674 40 11 0.09 7.960229583270608 15.64447975170762 20.141281606957683 -1 -1 1
780 46 15 0.09 10.098007899319828 8.400954656445645 20.623532352287757 0 1 2
5035 297 3 -0.173 11.892070239016924 13.494328675072069 15.99852191780809 0 0 -3
4381 258 12 0.09 2.3413831175885416 2.7740253575577265 18.545046922319813 0 1 1
769 46 4 -0.206 11.06831207512529 8.745927281763482 20.97709551731095 0 1 2
1154 68 15 0.09 5.166902112705588 13.045408272526249 16.89794435976477 2 -1 2
5034 297 2 -0.177 10.72981290941211 13.186964866614234 16.876703385560642 0 0 -3
485 29 9 0.09 2.15356458673116 6.035635800988049 14.152733808224674 -1 2 -2
1152 68 13 0.09 4.200055421189341 11.911919577580763 19.584027155193468 2 -1 2
4644 274 3 -0.173 6.07236816223162 8.27229589772502 22.477261846012595 0 2 -1
5045 297 13 0.09 11.622677563063666 13.720562666100916 14.955190371964743 0 0 -3
4374 258 5 0.07199999999999999 2.903207197101291 3.9023933778252937 21.143504823510614 0 1 1
1144 68 5 0.07199999999999999 3.2631691053970604 12.108760429358057 16.855901523438426 2 -1 2
778 46 13 0.09 11.58946949064815 9.759939145883221 19.01509579887471 0 1 2
1149 68 10 0.09 6.571496091221922 12.055008550870532 19.573290725038635 2 -1 2
1147 68 8 0.09 5.476220219140742 12.896210763720552 21.670385186840342 2 -1 2
777 46 12 0.09 11.864214762950636 7.890117709987454 19.19313532994044 0 1 2
1143 68 4 -0.206 4.648730841758578 12.338184015608418 17.49592883319553 2 -1 2
5041 297 9 0.09 9.024582247603956 14.011956305095854 17.62267299366859 0 0 -3
2740 162 3 -0.173 6.363332801154537 9.697464787612741 12.662901017916782 1 1 0
1148 68 9 0.09 5.521132494118235 14.574984366220752 20.92132153567201 2 -1 2
768 46 3 -0.173 11.927628717392317 8.930200313518446 19.72314348169307 0 1 2
781 46 16 0.078 10.880373453873025 10.864865525549831 21.21460849076517 0 1 2
1150 68 11 0.09 6.588662085418264 13.827426770221475 18.93171140198496 2 -1 2
1151 68 12 0.09 4.046244069137822 13.60537668378486 18.951595261682346 2 -1 2
5039 297 7 0.09 9.182171834699522 14.40927235582732 15.8673633042809 0 0 -3
1142 68 3 -0.173 4.635484123671247 12.704854669144003 18.976104631682592 2 -1 2
1316 78 7 0.09 8.82530705431497 4.111081933014377 13.900432698154619 -1 -2 -2
1140 68 1 -0.273 5.976332648356291 13.648545753376453 20.957649385164625 2 -1 2
2738 162 1 -0.273 8.145280666601721 10.617263995354241 14.257809217531808 1 1 0
1141 68 2 -0.177 6.013369334701519 13.081821151423542 19.5623588515598 2 -1 2
3375 199 9 0.09 2.253467196672575 7.3321236656717 18.635643885499064 2 0 1
2744 162 7 0.09 9.15474565722349 11.023136349391072 14.422061729063007 1 1 0
1322 78 13 0.09 4.535385811771663 5.412971040164323 13.530867716234255 -1 -2 -2
4375 258 6 -0.209 2.6595977486439786 4.766310563600259 22.187814577986003 0 1 1
4386 258 17 0.078 2.4077927804525245 2.991047778416655 21.36155457132332 0 1 1
4382 258 13 0.09 2.842914349801149 4.356745991725161 17.76824107474117 0 1 1
5634 332 7 0.09 5.104107285987825 15.401017199106873 14.32341192791897 0 -2 2
4654 274 13 0.09 6.8951913990222655 9.012968153395612 22.367738423360745 0 2 -1
4643 274 2 -0.177 6.542550003706159 6.804280213054361 22.392325361037795 0 2 -1
5291 312 4 -0.206 2.0418419863767596 14.380843126749516 21.510446851750928 0 2 -1
457 27 15 0.09 5.054926755956696 2.411835859314821 30.771893412752885 -2 -1 3
3434 202 17 0.078 11.46366014761506 14.997780539930098 23.176512525103885 0 -3 0
444 27 2 -0.177 7.612841141542696 3.380751030083816 31.453977560482972 -2 -1 3
446 27 4 -0.206 5.326548232336518 3.3319572779390767 30.216350000688884 -2 -1 3
445 27 3 -0.173 6.451839756789044 4.102114430421798 30.943180279666315 -2 -1 3
2722 161 2 -0.177 6.624683893168623 6.955672461597454 28.539449322120483 3 -2 2
452 27 10 0.09 8.155954240032424 2.9095767196063673 30.62068046736706 -2 -1 3
2730 161 10 0.09 6.56492871679154 5.982522924982664 27.943080348193416 3 -2 2
456 27 14 0.09 4.500421859057729 4.048661960788573 30.246545222609615 -2 -1 3
5609 330 16 0.078 8.185106047660732 8.26377167754136 32.25414794514947 2 2 -4
455 27 13 0.09 5.956130215043617 4.51070726096208 31.907012139821262 -2 -1 3
443 27 1 -0.273 7.367200046531519 2.342832655828086 32.48768522199565 -2 -1 3
4647 274 6 -0.209 5.593821496243143 10.665544077361869 23.4787032323605 0 2 -1
1386 82 9 0.09 3.2226739356282526 4.5313917072958745 26.712955399825294 1 3 -3
459 27 17 0.078 6.260863432817592 3.728517110275471 28.279210648298932 -2 -1 3
454 27 12 0.09 6.877059568197904 4.923226595285177 30.336994572366457 -2 -1 3
4021 237 9 0.09 5.631298828499414 12.06722924440907 26.50113335695108 -1 -6 3
453 27 11 0.09 8.27229685868412 4.155489325014148 31.9182424947453 -2 -1 3
1379 82 2 -0.177 2.523643676173554 6.549828147073038 26.47975401966617 1 3 -3
1384 82 7 0.09 4.079252143091628 5.406490023434113 25.377582731941303 1 3 -3
4645 274 4 -0.206 5.420725889073772 8.500260608341108 23.844659408410713 0 2 -1
2721 161 1 -0.273 5.3876859216682345 7.336501375642782 29.356665969433628 3 -2 2
2727 161 7 0.09 4.435434369170023 6.991141395819878 28.958588480567634 3 -2 2
5302 312 15 0.09 2.385384498886318 14.165209372433617 22.54020906489532 0 2 -1
782 46 17 0.078 11.395694661387314 9.9795165571919 22.734292529925707 0 1 2
1387 82 10 0.09 3.4641001195147285 7.031222787479887 26.749526749034615 1 3 -3
2723 161 3 -0.173 6.867268971914615 7.929949763876992 27.40335224544199 3 -2 2
2733 161 13 0.09 6.136276256274957 7.7978384229661994 26.617010421457252 3 -2 2
4656 274 15 0.09 4.559032384934036 7.857826718911033 23.88475745968481 0 2 -1
2729 161 9 0.09 5.397718048644771 6.847514172872217 30.34216783574737 3 -2 2
2728 161 8 0.09 5.413558841484694 8.440679864114143 29.629829082757993 3 -2 2
4651 274 10 0.09 7.226770146218739 6.669499269677407 23.265932948013777 0 2 -1
159 10 6 -0.209 2.8883088061676983 7.337662657496629 31.014901180785014 0 1 -1
1385 82 8 0.09 2.489815763624506 4.8459268450454225 25.046780661899138 1 3 -3
161 10 8 0.09 2.9279881583664693 12.060086042205869 31.7704628926594 0 1 -1
5056 298 7 0.09 4.49173167405252 3.3202205273283463 24.245688649781854 5 1 -3
5604 330 11 0.09 11.903082300153553 7.11094931168929 32.24587201227376 2 2 -4
3346 197 14 0.09 11.18304036830486 2.4347457309048206 28.229269094838415 1 3 -5
358 22 1 -0.273 9.417274717835962 15.014342256534997 31.366774915430994 -2 -2 0
366 22 9 0.09 10.319174961233308 14.341772754224822 31.244439330019702 -2 -2 0
4655 274 14 0.09 6.249854446402531 8.197708704614538 24.495753880853243 0 2 -1
2737 161 17 0.078 8.644701981906888 8.529228258815852 24.84731485671738 3 -2 2
4017 237 5 0.07199999999999999 6.12740766272362 12.450617292104742 31.6234720381682 -1 -6 3
4646 274 5 0.07199999999999999 4.778961084727224 9.828511266443234 24.192098776697957 0 2 -1
1648 97 16 0.078 8.43047819069881 3.7163419481131093 22.768143913275804 2 1 -2
4028 237 16 0.078 7.075110922943585 12.046002780768218 31.385858197479717 -1 -6 3
4019 237 7 0.09 4.760984815756361 13.491290595356348 25.80273260986585 -1 -6 3
4022 237 10 0.09 3.9243208185887526 13.931368270770026 28.269321798759155 -1 -6 3
2731 161 11 0.09 7.514897702676865 7.004537709198157 29.1716886938201 3 -2 2
5606 330 13 0.09 9.642732604554471 6.298094589963506 31.735679450573997 2 2 -4
2734 161 14 0.09 8.193340853578 6.66138836595437 26.28680802948751 3 -2 2
3422 202 5 0.07199999999999999 11.53375678231163 14.73591225074546 24.20314378345652 0 -3 0
1343 79 17 0.078 11.687105736577282 5.76513274998938 25.785409228991348 -2 3 1
4013 237 1 -0.273 4.755691046365266 12.732682439330047 26.664028033796242 -1 -6 3
1638 97 6 -0.209 8.842059471109794 4.099025265920588 24.653477978229645 2 1 -2
4025 237 13 0.09 4.993921473563381 11.745097900922554 29.142895277070867 -1 -6 3
4020 237 8 0.09 3.7796005874103065 12.121371691235959 26.638953021396407 -1 -6 3
2735 161 15 0.09 8.857594601658874 7.591146237885257 27.704068241453914 3 -2 2
1637 97 5 0.07199999999999999 9.232578486178586 3.5500168822126175 23.477036254788718 2 1 -2
1649 97 17 0.078 10.08799318757122 4.1176639468831855 23.141727731213273 2 1 -2
165 10 12 0.09 3.0081802288781434 10.110769304455179 30.240992793073204 0 1 -1
2724 161 4 -0.206 8.229008672843937 7.607265596172758 26.79119379836314 3 -2 2
2726 161 6 -0.209 9.936402059847106 9.21799979714962 26.188577235392415 3 -2 2
5050 298 1 -0.273 5.0276029528731145 2.4818055971462423 23.870061434140144 5 1 -3
448 27 6 -0.209 4.468142111052469 2.8121705661829206 28.1002942736622 -2 -1 3
5058 298 9 0.09 5.922863364266523 2.2723169899144713 24.457981908453583 5 1 -3
1331 79 5 0.07199999999999999 12.180927524297962 4.8407105857024195 25.987272199984087 -2 3 1
4015 237 3 -0.173 5.537797195662059 12.660665732060364 29.03709912911873 -1 -6 3
4588 270 15 0.09 2.1409536878680813 3.732971350681436 30.719975375975466 -1 0 3
1378 82 1 -0.273 3.1235894762695007 5.26657184095172 25.910325266815427 1 3 -3
4029 237 17 0.078 5.524949945430862 11.621550861243293 32.097524324221126 -1 -6 3
4657 274 16 0.078 4.718634105342769 10.112300150656896 25.208795531324654 0 2 -1
374 22 17 0.078 8.649318291818359 15.640220618095654 26.12723010131978 -2 -2 0
364 22 7 0.09 8.554772424870201 14.388344998578035 31.301252314340303 -2 -2 0
4014 237 2 -0.177 4.909788851685539 13.479574417473247 27.96993327253987 -1 -6 3
4652 274 11 0.09 5.654441655438243 6.141302605096577 22.5468253516034 0 2 -1
4024 237 12 0.09 6.581564225046339 12.458155881392589 28.682416396898187 -1 -6 3
447 27 5 0.07199999999999999 5.590239874976844 2.9998588284547205 28.772774460894855 -2 -1 3
5072 299 6 -0.209 12.127862882878738 12.795147775157409 29.395102195412743 0 -2 0
1390 82 13 0.09 2.264004595829305 7.532292065066495 24.54860342870408 1 3 -3
4016 237 4 -0.206 5.513863986495034 13.312732610948999 30.47821309922086 -1 -6 3
369 22 12 0.09 8.143576420811302 15.153480874854194 29.05689232806165 -2 -2 0
2725 161 5 0.07199999999999999 8.723790335515833 8.761905033196882 25.87603716503055 3 -2 2
1342 79 16 0.078 11.651418993867596 3.9407509649785233 25.663741337074732 -2 3 1
2736 161 16 0.078 7.954994685528657 9.512864783873795 25.951770223274938 3 -2 2
4026 237 14 0.09 4.508141356369561 13.471894445615822 30.87839903246824 -1 -6 3
3433 202 16 0.078 10.856046636007992 13.957710440136852 24.374380673915592 0 -3 0
370 22 13 0.09 9.905998972823081 15.097543578958515 28.500286453580937 -2 -2 0
2732 161 12 0.09 6.747654265337528 8.919067473996222 27.87906283930374 3 -2 2
4027 237 15 0.09 5.912658653425938 14.355503502110302 30.326470705081768 -1 -6 3
4023 237 11 0.09 5.634382250069745 14.323582693132487 27.817812188811303 -1 -6 3
365 22 8 0.09 9.484972766767605 15.525713619962946 32.331701120263816 -2 -2 0
3347 197 15 0.09 10.05080342197016 2.024839809855748 29.626597094704838 1 3 -5
5603 330 10 0.09 11.962803900050732 5.3757476714592904 32.027421801067995 2 2 -4
5057 298 8 0.09 5.466000063552401 2.7278242974735165 22.879252606802535 5 1 -3
4658 274 17 0.078 3.7775267410890385 9.94366323236224 23.791463250229285 0 2 -1