LAMMPS data file via write_data, version 29 Aug 2024, timestep = 1000000, units = real

7168 atoms
14 atom types
6656 bonds
13 bond types
12288 angles
24 angle types
15360 dihedrals
30 dihedral types

0.2290989607960121 44.7709010391835 xlo xhi
0.2290989607960121 44.7709010391835 ylo yhi
0.2290989607960121 44.7709010391835 zlo zhi

Masses

1 12.011
2 12.011
3 12.011
4 12.011
5 18.998
6 1.008
7 1.008
8 1.008
9 1.008
10 1.008
11 1.008
12 1.008
13 1.008
14 1.008

Pair Coeffs # lj/charmmfsw/coul/long

1 0.078 3.65268 0.01 3.38542
2 0.055999 3.58141 0.01 3.38542
3 0.055999 3.58141 0.01 3.38542
4 0.06 3.38542 0.06 3.38542
5 0.135 2.90433 0.135 2.90433
6 0.024001 2.38761 0.024001 2.38761
7 0.024001 2.38761 0.024001 2.38761
8 0.024001 2.38761 0.024001 2.38761
9 0.035 2.38761 0.035 2.38761
10 0.035 2.38761 0.035 2.38761
11 0.035 2.38761 0.035 2.38761
12 0.035 2.38761 0.035 2.38761
13 0.028 2.35197 0.028 2.35197
14 0.028 2.35197 0.028 2.35197

Bond Coeffs # harmonic

1 222.5 1.528
2 222.5 1.53
3 170 1.52
4 420 1.374
5 322 1.111
6 322 1.111
7 322 1.111
8 309 1.111
9 309 1.111
10 309 1.111
11 309 1.111
12 342 1.0828
13 342 1.0828

Angle Coeffs # charmm

1 58 115 8 2.561
2 56.89 113.81 8 2.5
3 44 112 30 2.369
4 34.6 110.1 22.53 2.179
5 34.6 110.1 22.53 2.179
6 34.6 110.1 22.53 2.179
7 34.6 110.1 22.53 2.179
8 34.6 110.1 22.53 2.179
9 26.5 110.1 22.53 2.179
10 26.5 110.1 22.53 2.179
11 31 112 3 2.168
12 31 112 3 2.168
13 34.6 110.1 22.53 2.179
14 35.5 108.4 10.4 1.746
15 57.5 108.89 5 1.997
16 35.5 109 5.4 1.802
17 35.5 109 5.4 1.802
18 57.5 108.89 5 1.997
19 26.5 110.1 22.53 2.179
20 34.6 110.1 22.53 2.179
21 35.5 108.4 5.4 1.802
22 35.5 108.4 5.4 1.802
23 35.5 108.4 5.4 1.802
24 26.5 110.1 22.53 2.179

Dihedral Coeffs # charmmfsw

1 0.15 2 0 1
2 0.34 3 180 1
3 0.16 3 0 1
4 0.22 3 0 1
5 0.18 3 0 1
6 0.185 3 0 1
7 0.22 3 0 1
8 0.16 3 0 1
9 0.185 3 0 1
10 0.02 3 180 1
11 0.18 3 0 1
12 0.05 3 0 1
13 0.185 3 0 1
14 0.185 3 0 1
15 0.185 3 0 1
16 0.185 3 0 1
17 0.16 3 0 1
18 0.16 3 0 1
19 0.16 3 0 1
20 0.16 3 0 1
21 0.16 3 0 1
22 0.02 3 180 1
23 0.16 3 0 1
24 0.16 3 0 1
25 0.22 3 0 1
26 0.22 3 0 1
27 0.05 3 0 1
28 0.08 3 180 0
29 0.11 4 0 0
30 0.2 5 0 0

Atoms # full

6420 459 8 0.09 1.850239595628047 8.485969730014071 0.8130100242258371 3 3 0
3699 265 3 -0.208 10.174515683092483 4.550361912967468 9.193376578826246 0 -2 0
4975 356 5 -0.209 0.859583334335689 13.127575092989506 10.697015295870695 0 4 1
4529 324 7 0.09 6.863843223849036 2.6882453938234163 9.393023052174488 -1 4 0
5560 398 2 -0.169 0.8090205890857619 2.9445992896200166 3.7257699696999227 2 4 1
5561 398 3 -0.208 2.2789835335428683 2.419640786738945 3.9553071671330535 2 4 1
5567 398 9 0.09 0.6000295998574139 3.037848192574934 2.6730397200499803 2 4 1
1022 73 14 0.078 10.424906044749399 3.143678140692605 6.246124720871521 3 1 -1
1021 73 13 0.078 11.084834725111492 1.4793051255111551 6.462775127141393 3 1 -1
1012 73 4 0.073 11.107890672128779 2.4003572289185464 5.810742636193509 3 1 -1
1328 95 12 0.09 4.8924918275248315 6.733230103157137 5.0555962930016785 1 1 0
1319 95 3 -0.208 5.318403070479608 6.269775027836898 5.972151049579069 1 1 0
1014 73 6 0.09 8.825791982691067 0.4020100113001005 5.862478774700717 3 1 -1
1017 73 9 0.09 8.741670053323858 2.661912314274244 4.746173658539896 3 1 -1
3363 241 3 -0.208 6.794474980107489 12.905065640805978 0.41021591979963123 -2 2 -1
1019 73 11 0.09 11.029126466246824 2.9590827077084025 3.6796757431151152 3 1 -1
5090 364 8 0.09 1.2872207426625386 3.8124077667167233 10.443478184939165 1 1 -3
1010 73 2 -0.169 9.271646813612781 1.8273566710893197 4.2755662111945565 3 1 -1
1009 73 1 -0.273 8.823041799638535 0.4579308089895774 4.780456027642414 3 1 -1
1011 73 3 -0.208 10.75802261887664 2.075136198361861 4.357490338344989 3 1 -1
5569 398 11 0.09 2.3818957855483083 1.578971014604806 3.2579482493701537 2 4 1
1327 95 11 0.09 6.233867829394409 6.994970179549204 5.9528424744173645 1 1 0
3372 241 12 0.09 7.036091727507906 12.571845438867667 1.461766606055191 -2 2 -1
4523 324 1 -0.273 5.804329244943087 2.741017284627635 9.522418398225842 -1 4 0
1326 95 10 0.09 4.5557686728549305 7.69675856040588 7.347861206112572 1 1 0
5083 364 1 -0.273 1.3981004959942032 3.443544141214918 9.378659101067614 1 1 -3
5085 364 3 -0.208 0.4376744616311954 1.8890604042645873 7.688051144329057 1 1 -3
570 41 10 0.09 8.851512305742485 14.624768754728608 8.698751322795808 -2 3 2
5089 364 7 0.09 2.4867722919274877 3.348796631982251 9.236753468558506 1 1 -3
6419 459 7 0.09 0.31740016064502685 7.618080615683987 0.6849414009617589 3 3 0
169 13 1 -0.273 10.637287699257223 3.93524698725874 0.5076896157862112 -2 3 0
5086 364 4 0.073 0.4999236823132513 0.4491416527584784 7.182727320623975 1 1 -3
5559 398 1 -0.273 0.3553979912858354 4.305065009624125 4.31574505341611 2 4 1
5572 398 14 0.078 3.291073840509828 3.725161910416054 2.6637192573018775 2 4 1
951 68 13 0.078 6.897955083334615 12.803641247235825 10.504574428365833 -1 3 2
4528 324 6 0.09 5.3910144760517085 1.7961826214144345 9.063812816433163 -1 4 0
6205 444 3 -0.208 10.300794162241505 7.952671539098996 4.055243218468451 -2 -1 -1
3700 265 4 0.073 9.971217102030481 5.188674844516974 7.829144658214744 0 -2 0
1978 142 4 0.073 2.442302067405958 14.771556503424819 3.014925254552689 -4 2 1
5570 398 12 0.09 2.5249354086974676 2.052052932209355 4.963944795228223 2 4 1
178 13 10 0.09 11.128443293212046 1.9795234962441313 1.4391708892339063 -2 3 0
6212 444 10 0.09 9.768960860667063 6.767359635687356 2.1499733100363176 -2 -1 -1
6209 444 7 0.09 8.432215863777058 4.97664138716193 3.6040496718896957 -2 -1 -1
5564 398 6 0.09 0.899046816854094 5.038941929268684 3.632075855614625 2 4 1
329 24 7 0.09 10.15116256294381 13.690338583718727 4.394146400088008 -2 5 2
6210 444 8 0.09 9.254765584361465 5.724946400894001 4.989601972370462 -2 -1 -1
3707 265 11 0.09 9.385062071294032 4.966225272785524 9.830412429799875 0 -2 0
5092 364 10 0.09 1.5060310955522656 1.2416655577103723 9.42449884904963 1 1 -3
6208 444 6 0.09 10.225643982220364 4.836283823868387 3.6887962220783583 -2 -1 -1
6204 444 2 -0.169 9.47168898714376 6.864330780448458 3.206087113636486 -2 -1 -1
6203 444 1 -0.273 9.32321005790778 5.500912921227762 3.8994069309194295 -2 -1 -1
5084 364 2 -0.169 0.7524485159409412 2.066369898281006 9.123325555636457 1 1 -3
904 65 8 0.09 6.253428147928897 4.391742839128539 2.0459675893483746 -1 4 1
3709 265 13 0.078 8.940035901427105 4.950294190834863 7.485569905248725 0 -2 0
3701 265 5 -0.209 10.084580600469412 6.585978971348883 8.014871907033843 0 -2 0
1018 73 10 0.09 9.013636745565632 1.902038507673754 3.1801878362373515 3 1 -1
330 24 8 0.09 8.250955792245025 13.944802419243427 4.320550295814289 -2 5 2
6252 447 8 0.09 1.0873682405537854 12.950386737632787 5.113006940093725 0 0 1
4535 324 13 0.078 7.300866800948007 4.991081479818162 10.54254678794389 -1 4 0
3708 265 12 0.09 9.950598605400616 3.4161453903236736 9.091875672390849 0 -2 0
3385 242 11 0.09 0.28757543222641635 8.518801253672539 8.210318026172706 -1 -2 -2
3373 241 13 0.078 6.580445614602575 14.798543159659939 1.1039697646636633 -2 2 -1
1321 95 5 -0.209 6.516384335017328 4.327336439044428 6.6529990245091275 1 1 0
1320 95 4 0.073 5.63796640402228 4.783470958455208 5.757689020557621 1 1 0
1329 95 13 0.078 6.121880066009354 4.531168171621387 4.781883841921468 1 1 0
1330 95 14 0.078 4.80170612551917 4.178605369397543 5.927375163200653 1 1 0
1318 95 2 -0.169 4.501099925970005 6.583738042503065 7.166893245477524 1 1 0
1324 95 8 0.09 2.6404455531282394 6.570319421926827 6.060221392737391 1 1 0
2189 157 5 -0.209 9.908178227041226 10.094759870605628 6.28488133210794 -2 1 3
6214 444 12 0.09 10.132084135868292 8.985552845479276 3.6530517170146077 -2 -1 -1
907 65 11 0.09 7.586494979129754 7.551435035245166 0.40432610355970516 -1 4 1
4530 324 8 0.09 5.396613757291054 3.578623154243977 9.012114250741543 -1 4 0
332 24 10 0.09 9.597858939432127 14.722742387011332 2.315808847800719 -2 5 2
6253 447 9 0.09 0.3512196250012677 11.305111157612375 3.4798751689919114 0 0 1
5093 364 11 0.09 1.1487028536159398 2.3850436078842625 7.008955117610321 1 1 -3
1020 73 12 0.09 11.319356019569158 1.1055878049447352 4.000630693125862 3 1 -1
1981 142 7 0.09 2.7180251402472813 14.674864048288137 6.91584988183704 -4 2 1
3369 241 9 0.09 5.418945989943825 11.205693351156139 0.40671004450239356 -2 2 -1
948 68 10 0.09 3.500314142064253 12.355241569589191 10.013921933480104 -1 3 2
2193 157 9 0.09 7.971463477704478 9.380322301344314 4.419625477418488 -2 1 3
3364 241 4 0.073 6.075123484974238 14.202187818118064 0.41849647218499125 -2 2 -1
2198 157 14 0.078 9.116656044879647 11.360565066181838 7.557388747209509 -2 1 3
5095 364 13 0.078 0.4609074969203957 0.4854668387802881 6.122907464192417 1 1 -3
323 24 1 -0.273 9.287917744103119 14.440966001113438 4.441234319938819 -2 5 2
5563 398 5 -0.209 4.699822471680391 2.777325160572937 3.8245713257125016 2 4 1
1985 142 11 0.09 3.415700680638583 13.738704925844972 4.684819870667893 -4 2 1
5571 398 13 0.078 3.517201876886815 4.323451833158876 4.3008592699932615 2 4 1
6256 447 12 0.09 2.2167286545866363 10.751882565974672 5.092393623833249 0 0 1
950 68 12 0.09 5.468299820879966 10.978461371765745 11.003573013750431 -1 3 2
6255 447 11 0.09 1.0256937742267396 10.047487543589186 6.079296145782758 0 0 1
3710 265 14 0.078 10.58499434064406 4.851517346554703 7.037164881561915 0 -2 0
1977 142 3 -0.208 3.3582942933918116 14.773084250041036 4.165882062610066 -4 2 1
1988 142 14 0.078 1.4087819014940015 14.606035743236383 3.229570150396044 -4 2 1
6213 444 11 0.09 9.849780929429443 7.853798999521028 5.0794349397795076 -2 -1 -1
6247 447 3 -0.208 1.2572440583442572 10.184095854752659 5.045366798051374 0 0 1
3374 241 14 0.078 5.1597485791995075 13.9684143094595 0.867021909351278 -2 2 -1
6211 444 9 0.09 8.481536282549495 7.248817503370867 3.269119589811184 -2 -1 -1
4532 324 10 0.09 4.5153512013138135 2.3083628795804727 11.198559567127761 -1 4 0
947 68 9 0.09 3.3931895241944634 10.642761131706289 10.192977209500441 -1 3 2
2188 157 4 0.073 8.821675924605792 10.578455079387808 6.859619122031155 -2 1 3
5562 398 4 0.073 3.4576404108181857 3.4473288005321936 3.694532022999168 2 4 1
5206 372 12 0.09 11.204894324881925 11.135148490570824 1.7550297702357616 2 1 3
902 65 6 0.09 5.213946841182941 5.701895977976677 1.5381109299366178 -1 4 1
1322 95 6 0.09 2.2864215071673977 6.478459250359236 7.830914331153396 1 1 0
1323 95 7 0.09 2.8837162604333573 5.056976002696083 6.980510258603682 1 1 0
1325 95 9 0.09 5.023427800137445 6.1689448126520325 8.084606326221921 1 1 0
5088 364 6 0.09 1.0218030654602193 4.267734721256102 8.680648455944505 1 1 -3
569 41 9 0.09 9.453104179584878 14.255668948051 10.312107984828579 -2 3 2
1986 142 12 0.09 4.385620421166366 14.91505827124384 3.7021385410759287 -4 2 1
1317 95 1 -0.273 3.0171876517861693 6.151493730186778 6.99989050023328 1 1 0
2191 157 7 0.09 5.945588453534959 11.664224275316771 4.326859884610552 -2 1 3
4524 324 2 -0.169 5.545775435624592 2.6335223895836397 11.062763097650523 -1 4 0
949 68 11 0.09 5.780473719031066 10.60197375403366 9.29667750430916 -1 3 2
903 65 7 0.09 6.792485756601289 5.974297104711547 2.345349922411383 -1 4 1
2185 157 1 -0.273 6.317952800404963 10.69158738375287 3.989231137074605 -2 1 3
941 68 3 -0.208 5.365542297824677 11.365703099707389 9.946868233428718 -1 3 2
942 68 4 0.073 6.091626650914848 12.69288541037506 9.795030278307076 -1 3 2
176 13 8 0.09 10.302507343748085 4.227835707149729 1.5489193275565951 -2 3 0
328 24 6 0.09 9.202115600521138 14.963773385247118 5.383698116367259 -2 5 2
2186 157 2 -0.169 7.278090883610113 10.02195458752206 4.973773898495475 -2 1 3
6249 447 5 -0.209 2.6585001747906887 8.758339692505682 3.935489596327929 0 0 1
946 68 8 0.09 3.8655501263982055 12.512722279477044 7.669501276900151 -1 3 2
2192 157 8 0.09 5.54085461778635 10.005027363154625 3.665708963170943 -2 1 3
943 68 5 -0.209 6.71067545829958 12.81684717588942 8.597402859272343 -1 3 2
1979 142 5 -0.209 2.8944994429948765 13.904828278758583 2.0245339924363925 -4 2 1
2197 157 13 0.078 8.390869588689613 9.770325889084067 7.484937068545523 -2 1 3
6257 447 13 0.078 0.7242847638946468 9.095660420827217 3.3464863866015486 0 0 1
2196 157 12 0.09 8.32818400375303 11.790401682927797 5.088177396178478 -2 1 3
952 68 14 0.078 5.361191842232527 13.468258836947378 9.935074614172928 -1 3 2
944 68 6 0.09 2.3940655090668113 11.447532874610115 7.958499963986781 -1 3 2
2187 157 3 -0.208 7.848587424334016 11.038503141972543 5.84296648810071 -2 1 3
6248 447 4 0.073 1.3487358776445173 8.9424718568639 4.245594297816696 0 0 1
2194 157 10 0.09 6.6299469366197865 9.294581590686239 5.592476738824064 -2 1 3
5565 398 7 0.09 0.6518291228687157 4.391841841637664 5.3994615321539445 2 4 1
939 68 1 -0.273 3.535001479143156 11.510675301467467 8.112167836760825 -1 3 2
945 68 7 0.09 4.146931517230532 10.695736065276755 7.665130849201872 -1 3 2
2195 157 11 0.09 7.023191364981029 11.644274234887888 6.296068097489377 -2 1 3
6509 465 13 0.078 11.103305901363449 1.0975320194427174 10.766234741140487 0 -1 1
6258 447 14 0.078 0.9468917007016364 8.160392995353728 4.8375487873255985 0 0 1
897 65 1 -0.273 6.2839677744477065 5.401886526533286 1.5877292614333682 -1 4 1
940 68 2 -0.169 3.845043806935739 11.477009594466388 9.58879330967663 -1 3 2
2190 157 6 0.09 6.856749432499706 10.982726338979733 3.035706050386351 -2 1 3
906 65 10 0.09 7.904861961652673 5.067674881541486 0.3416873942145767 -1 4 1
6508 465 12 0.09 11.354212410717075 0.6268842131847594 8.480501831215115 0 -1 1
2292 164 10 0.09 4.812614806737813 6.304273460934446 19.21319340938206 0 1 2
5330 381 10 0.09 6.996319415540735 8.38438233437324 15.955505926005811 0 -3 0
1292 93 4 0.073 2.3500549263927897 2.612427671847838 17.298829475893832 -3 -1 -1
1762 126 12 0.09 7.692448000092921 2.9336175372738857 15.394117121206426 5 -1 -1
5322 381 2 -0.169 5.984431324849964 8.421844838547216 16.506595079065864 0 -3 0
930 67 6 0.09 10.383940718851072 2.0656952619972913 19.743310535077526 0 0 -2
5329 381 9 0.09 5.993817896876297 7.938515262926164 17.493054796440948 0 -3 0
5325 381 5 -0.209 4.020380046250769 7.4956099255779005 13.439168331448373 0 -3 0
5332 381 12 0.09 5.043269558699425 6.58560019421428 15.795830637212681 0 -3 0
2378 170 12 0.09 9.763812149082153 9.75609983250008 19.60884648155067 1 -2 2
5331 381 11 0.09 3.9055615636295893 8.017997374436437 16.044978447113902 0 -3 0
5323 381 3 -0.208 4.928328995583004 7.670391267894233 15.699159494891887 0 -3 0
5324 381 4 0.073 5.06196262788312 7.973422111814704 14.188137417863548 0 -3 0
5389 385 13 0.078 0.9416205498115428 5.537722726155723 19.893646519497448 3 -1 -3
3588 257 4 0.073 1.0032921638623167 2.6029470483936556 12.955285387357321 0 -1 2
5333 381 13 0.078 5.929953954781316 7.620686605678598 13.762649666274179 0 -3 0
2290 164 8 0.09 4.67023085944158 8.824041075547958 19.166241428390013 0 1 2
4753 340 7 0.09 10.028924573944524 13.121665969933686 21.699592103665776 1 0 2
3589 257 5 -0.209 0.9966819120026571 1.3104631918141205 12.487489641606457 0 -1 2
202 15 6 0.09 10.22806231908072 8.495461920132907 16.030930143712155 1 1 3
1754 126 4 0.073 6.5598350658886995 2.935392565598295 17.215604503077856 5 -1 -1
1761 126 11 0.09 6.591794491468533 1.4163001010866867 15.672202726941531 5 -1 -1
201 15 5 -0.209 8.600773191755582 6.761119480274597 20.012883761628604 1 1 3
1199 86 9 0.09 0.3823242231118379 13.331428491360109 14.057308848059707 -2 0 -2
1291 93 3 -0.208 2.2949438135144393 1.0994220497048015 17.416976293735782 -3 -1 -1
1753 126 3 -0.208 7.300091377889981 2.1090815325539536 16.153646168908224 5 -1 -1
1295 93 7 0.09 4.103357833430282 0.9222062465867691 19.702387899231972 -3 -1 -1
2283 164 1 -0.273 4.692510379887328 8.320812020396806 20.12162491265233 0 1 2
2369 170 3 -0.208 9.293115096329297 10.54127018668169 20.18324547672753 1 -2 2
1297 93 9 0.09 1.3816782985917855 1.2222053544796276 19.389424772579787 -3 -1 -1
1299 93 11 0.09 1.4998795654129926 0.7175038219559099 16.705102874219648 -3 -1 -1
3886 278 8 0.09 8.756127721230122 9.34265837313257 11.697583830325256 0 2 1
199 15 3 -0.208 10.636068318447176 6.851492563163062 19.03044947203111 1 1 3
1293 93 5 -0.209 3.166217599112916 3.007165781127417 16.24681305547897 -3 -1 -1
3597 257 13 0.078 1.318615330352083 2.5402578482439973 13.995285565967558 0 -1 2
4533 324 11 0.09 5.729397891412888 3.74770543917145 12.9486221854641 -1 4 0
3853 276 3 -0.208 0.8694484339919736 7.613129410616425 15.791274464341443 -1 0 0
2294 164 12 0.09 5.717785528090592 6.800317034864773 22.028304604763235 0 1 2
1301 93 13 0.078 2.7764712484135345 2.8965946981811204 18.236509679883273 -3 -1 -1
1300 93 12 0.09 3.172130532067274 0.5953298020713844 16.97323573094957 -3 -1 -1
2295 164 13 0.078 6.789327039616169 4.743478376980375 20.78786676421421 0 1 2
5387 385 11 0.09 0.9802626709172018 5.734870648689772 22.16556122274747 3 -1 -3
3607 258 9 0.09 2.159071178446937 14.81536850831388 15.062441379290535 2 -2 3
2296 164 14 0.078 5.136638718222874 4.206380780584842 20.472259535986684 0 1 2
2287 164 5 -0.209 5.731821305929713 4.1697835882079755 22.403743030697893 0 1 2
299 22 5 -0.209 10.719428400904944 14.907518106989283 13.596307281378095 -1 -2 1
2288 164 6 0.09 5.36548916324353 8.893401260464433 20.82816807172278 0 1 2
198 15 2 -0.169 10.172364444001234 7.015176018060671 17.555743172843023 1 1 3
2291 164 9 0.09 6.334035937754144 6.944581616627658 19.75911162203987 0 1 2
1764 126 14 0.078 5.818709384944109 3.6509635803170393 16.75914081921275 5 -1 -1
2284 164 2 -0.169 5.240578955200164 6.931042205025055 20.000239720089045 0 1 2
1752 126 2 -0.169 8.574654236367252 1.3642815757518605 16.74033292671446 5 -1 -1
2286 164 4 0.073 5.757453536256205 4.780264198496665 21.189994443736264 0 1 2
1759 126 9 0.09 9.255233596106873 2.151519691442958 17.129117293421274 5 -1 -1
926 67 2 -0.169 8.806254301788517 1.9395433008860596 21.362595548649157 0 0 -2
2285 164 3 -0.208 5.129736829095276 6.164099277879959 21.281736887622042 0 1 2
6879 492 5 -0.209 4.234963778754809 13.33062705281804 18.470074296762537 -4 -1 1
2289 164 7 0.09 3.6411105640947565 8.231419988310867 20.454778338557283 0 1 2
5110 365 14 0.078 9.490480655059208 14.282231724565333 18.960145531866104 1 -2 -3
3598 257 14 0.078 1.748263202299069 3.061775604756537 12.294934434217724 0 -1 2
1751 126 1 -0.273 9.483681588401714 0.6906568821267678 15.646293964770532 5 -1 -1
3885 278 7 0.09 10.341458636414199 9.604159564175836 12.611702915295814 0 2 1
933 67 9 0.09 8.048648111693566 2.5626578580500943 20.96835663836727 0 0 -2
2293 164 11 0.09 4.070256941121401 6.058449521590259 21.472708882633764 0 1 2
5101 365 5 -0.209 11.336541249925377 14.650956707515341 18.42871604550144 1 -2 -3
1755 126 5 -0.209 7.324926435678257 3.6057633581000066 18.05907070615151 5 -1 -1
1756 126 6 0.09 9.545196178449533 1.345638206928649 14.799591430283499 5 -1 -1
1760 126 10 0.09 8.29495603473223 0.6804723384076166 17.554945942727652 5 -1 -1
206 15 10 0.09 9.09040989459642 7.262526371091077 17.484157360572855 1 1 3
1302 93 14 0.078 1.3721160134946608 3.1138075156958496 17.22903180014226 -3 -1 -1
1758 126 8 0.09 10.493851930279353 0.45055121548285504 16.05303998256964 5 -1 -1
3863 276 13 0.078 1.1837221427237747 5.471806888369786 16.056021122686694 -1 0 0
3862 276 12 0.09 1.6239778098820568 7.569795789156162 14.974673078862475 -1 0 0
4488 321 8 0.09 3.2463604071895413 14.662310955800526 21.70195407842332 -1 1 -2
931 67 7 0.09 9.170396464078655 0.7032156205695477 19.572841620305454 0 0 -2
3855 276 5 -0.209 2.23653087030048 6.461295353839393 17.413922280410453 -1 0 0
5326 381 6 0.09 5.005280704577069 9.878735490147232 17.607817386252155 0 -3 0
1201 86 11 0.09 1.5010129374953924 10.585877849269718 14.557683306480921 -2 0 -2
5327 381 7 0.09 5.267639259767101 10.415332906376717 16.00795557382932 0 -3 0
5334 381 14 0.078 5.1796853494476975 8.94512966443895 13.935573537076463 0 -3 0
5321 381 1 -0.273 5.75590410846749 9.849960447554642 16.81773577871147 0 -3 0
5328 381 8 0.09 6.679544604501225 10.359684009987804 17.058972860849334 0 -3 0
5109 365 13 0.078 9.979803970499503 13.549185377020253 17.48805549616302 1 -2 -3
2377 170 11 0.09 9.878635107054011 11.48463571571516 20.11382214422737 1 -2 2
3884 278 6 0.09 9.31717553733052 8.104177262535696 13.022343685375452 0 2 1
934 67 10 0.09 9.359099291022638 2.586278138164482 22.140601774580233 0 0 -2
3861 276 11 0.09 1.0998648486505975 8.4743049578483 16.435231525608106 -1 0 0
1763 126 13 0.078 5.8848267021580085 2.341541345324345 17.822558317191895 5 -1 -1
197 15 1 -0.273 10.956549700753843 8.049735197814812 16.869015125460116 1 1 3
4486 321 6 0.09 5.094118697347307 14.302830986676593 21.79533230966251 -1 1 -2
4526 324 4 0.073 7.17312776177026 4.592692950561371 11.569877083117705 -1 4 0
3854 276 4 0.073 1.023600359893433 6.376912359095441 16.652931189481592 -1 0 0
927 67 3 -0.208 8.124380652302893 0.7412115907277541 22.093056558277812 0 0 -2
1193 86 3 -0.208 1.6433267301652852 11.61940411188696 14.336714696173978 -2 0 -2
3879 278 1 -0.273 9.301906482803629 9.201899923604026 12.6933543981372 0 2 1
3887 278 9 0.09 8.811550324733314 9.957192578828714 14.623420545210443 0 2 1
210 15 14 0.078 9.718970415364495 5.158212756349338 19.45741691274748 1 1 3
2368 170 2 -0.169 7.90481840950677 10.90404651584999 19.656506854874973 1 -2 2
2375 170 9 0.09 7.979826840764696 11.165943126539055 18.612446620906212 1 -2 2
6878 492 4 0.073 3.1752785184608827 12.638770665681989 18.018895992476537 -4 -1 1
3891 278 13 0.078 7.615091795984609 12.182531518008386 15.08592727070443 0 2 1
1204 86 14 0.078 2.2680284611285213 11.24507981464929 12.203616705050633 -2 0 -2
2372 170 6 0.09 6.317138491225808 12.313155271708657 19.749277707160243 1 -2 2
2371 170 5 -0.209 10.40831813548947 10.41741493190252 22.230738300753288 1 -2 2
3883 278 5 -0.209 7.849053998302648 13.767467617084723 13.860733249837748 0 2 1
3890 278 12 0.09 9.420827920925028 11.808157810131558 13.164841016221613 0 2 1
925 67 1 -0.273 9.764399575452583 1.3042978927507098 20.340132761755847 0 0 -2
6888 492 14 0.078 3.49576079918994 11.98084370767184 17.217096706625114 -4 -1 1
1195 86 5 -0.209 3.8821321005032243 11.29470778942681 13.407199804285552 -2 0 -2
3880 278 2 -0.169 8.38340186977494 9.99493939346282 13.684188521992212 0 2 1
2374 170 8 0.09 6.733471056570322 11.901960056177087 21.35715907394726 1 -2 2
3892 278 14 0.078 6.40735205686476 12.302065022098853 13.859306464616969 0 2 1
1192 86 2 -0.169 0.24767889778464353 12.20295682246815 14.196029664881689 -2 0 -2
2370 170 4 0.073 9.172120487014553 10.199306786344284 21.722672335105113 1 -2 2
1290 93 2 -0.169 2.037976379223641 0.5651149773857826 18.8182031007808 -3 -1 -1
6882 492 8 0.09 1.1668534944869458 10.491585900783674 20.691153998832633 -4 -1 1
6880 492 6 0.09 1.1596539280246656 9.025997412072153 19.531499359496365 -4 -1 1
3603 258 5 -0.209 4.854247706232904 14.71930447939513 14.459569209829196 2 -2 3
2373 170 7 0.09 7.862164403173013 12.968956401206938 20.451863348278547 1 -2 2
3881 278 3 -0.208 8.363423732815454 11.500388659669735 13.150496834566924 0 2 1
3882 278 4 0.073 7.443379100694297 12.425094760258506 14.046750187907971 0 2 1
2376 170 10 0.09 7.279496099360276 9.948706664273155 19.68357229307531 1 -2 2
209 15 13 0.078 10.192197065882015 6.089224139994417 20.94147023890203 1 1 3
1194 86 4 0.073 2.603781491415613 11.763208816486692 13.103388441955168 -2 0 -2
6887 492 13 0.078 2.5142555939830236 13.354160786764448 17.621591046683545 -4 -1 1
3888 278 10 0.09 7.325016284805388 9.593242145569862 13.572055165951365 0 2 1
504 36 14 0.078 0.4527618285056107 14.63410755779921 19.241123634125028 2 1 4
5103 365 7 0.09 5.984492544510425 14.903032251854 17.167480657033245 1 -2 -3
6885 492 11 0.09 3.2651240380367446 10.915442186874385 19.551236045371983 -4 -1 1
6877 492 3 -0.208 2.601673290045136 11.647591553617863 19.089390899448432 -4 -1 1
6876 492 2 -0.169 1.4681047740102338 10.871306885311295 18.515650948441184 -4 -1 1
6883 492 9 0.09 0.7408221012826629 11.591541122635064 18.06090495438307 -4 -1 1
5100 365 4 0.073 10.015706892779317 14.437429877119907 18.04670177268122 1 -2 -3
4527 324 5 -0.209 7.06492269786673 5.709508229868448 12.337298708097666 -1 4 0
2367 170 1 -0.273 7.189243068896645 12.119790494746777 20.33595978992507 1 -2 2
2379 170 13 0.078 8.823248434625839 9.210167902316647 21.83090026130744 1 -2 2
200 15 4 0.073 9.801609610913685 6.111191318801116 19.950157984333888 1 1 3
6875 492 1 -0.273 0.8850728739861476 10.092426579357666 19.685904886514795 -4 -1 1
5102 365 6 0.09 7.381067249486602 13.786910658763729 17.70576480243746 1 -2 -3
4747 340 1 -0.273 10.73202071259386 13.609330584978894 22.414649769753378 1 0 2
205 15 9 0.09 10.381122829618043 6.015802189962383 16.997005525565623 1 1 3
4534 324 12 0.09 5.016836930419865 4.664701148220593 11.557214627327536 -1 4 0
6886 492 12 0.09 2.126495363949813 12.215888200675638 19.964399792774135 -4 -1 1
308 22 14 0.078 11.077957443322738 13.781871578859024 15.247719602787546 -1 -2 1
5097 365 1 -0.273 7.019636218506317 14.828975329692566 17.638043465282436 1 -2 -3
1202 86 12 0.09 2.2846658492096945 12.075220457238983 15.116809442231668 -2 0 -2
6884 492 10 0.09 1.7816109778325189 10.190907664666893 17.697697265965548 -4 -1 1
1203 86 13 0.078 2.7000170228389373 12.769042849484999 12.84885793944298 -2 0 -2
3889 278 11 0.09 8.016287023922398 11.552518965569352 12.101516697219845 0 2 1
204 15 8 0.09 11.246730742779583 8.820658632152595 17.591400713385674 1 1 3
207 15 11 0.09 10.786306118189989 7.877301834674678 19.384642119497197 1 1 3
5390 385 14 0.078 0.34772578913358165 7.1652258009263345 20.011723182871027 3 -1 -3
4481 321 1 -0.273 4.321568117383496 15.038185300264717 21.64224485396752 -1 1 -2
932 67 8 0.09 10.440026338585449 0.5841337165016821 20.904167112659547 0 0 -2
4525 324 3 -0.208 5.816877136203577 3.9057696425344584 11.880669253217498 -1 4 0
2380 170 14 0.078 8.555185474000046 10.856577854318715 22.291472643647705 1 -2 2
3605 258 7 0.09 2.730670547058149 15.065825338367864 12.67899497250403 2 -2 3
4531 324 9 0.09 6.186369165273158 1.8668569877569456 11.546474325258298 -1 4 0
3593 257 9 0.09 0.25527720537327103 5.237676942411952 13.40075459284626 0 -1 2
4536 324 14 0.078 8.162441672968818 4.1487309430380925 11.708208011393381 -1 4 0
5844 418 6 0.09 0.988404131181795 15.040343507214683 22.0340329409247 -1 2 -2
5766 412 12 0.09 8.49192113639191 8.259044935794483 27.698723921217272 5 -2 1
5757 412 3 -0.208 7.622357224748975 8.076257445202497 28.272123129620603 5 -2 1
5765 412 11 0.09 6.6898935282979926 8.261252272386193 27.749612630194523 5 -2 1
5763 412 9 0.09 6.930352762075031 6.395634781394721 29.43435803622353 5 -2 1
5761 412 7 0.09 9.687057926960948 6.280243350675437 29.627894846173724 5 -2 1
4471 320 5 -0.209 2.9319778823359157 3.2880512707655405 23.59705537701763 1 4 -2
5764 412 10 0.09 7.019931700180047 5.983308429711865 27.774716922792315 5 -2 1
5762 412 8 0.09 9.463397247689374 5.758628762735972 27.89169934402055 5 -2 1
5756 412 2 -0.169 7.602453759856776 6.542565822802547 28.626880622816778 5 -2 1
4469 320 3 -0.208 3.2452479105116048 3.288970738558556 25.961840074432036 1 4 -2
5755 412 1 -0.273 8.966397992159612 5.801309858906997 28.846708274623452 5 -2 1
5760 412 6 0.09 8.767289470135351 4.762786347820144 29.111920606219424 5 -2 1
4475 320 9 0.09 2.9446922666654 3.469386407308273 27.999239363134947 1 4 -2
4470 320 4 0.073 3.1922001329265175 4.1235107846264505 24.654057009627856 1 4 -2
1826 131 6 0.09 0.4459071586294684 7.9325890932563965 26.796395735560157 -4 2 -1
5146 368 8 0.09 4.784710941069693 2.9916416618971042 29.213274652945753 -1 5 1
5843 418 5 -0.209 2.844638302776705 12.219764225108639 24.89939200026154 -1 2 -2
6219 445 3 -0.208 0.9442145021410494 12.890881683182613 32.67263177877945 2 0 -4
4468 320 2 -0.169 2.815281141767307 4.195436166412464 27.140201988416557 1 4 -2
2582 185 6 0.09 6.764236654024729 9.256069394630824 25.837251002130763 5 3 2
2577 185 1 -0.273 6.122282545693988 9.191451029609448 24.89112800929071 5 3 2
4476 320 10 0.09 3.4484911562101837 5.034072435036977 27.35261647747831 1 4 -2
5384 385 8 0.09 0.3111972942135965 3.8345183668198373 23.628951932070972 3 -1 -3
5151 368 13 0.078 2.430568152944402 1.8715142343116227 30.54450056300909 -1 5 1
4474 320 8 0.09 1.0556851795451117 5.298368130818443 26.277662440871605 1 4 -2
4480 320 14 0.078 2.347372822161248 4.8081393826804195 24.61663413420904 1 4 -2
2579 185 3 -0.208 3.848761462009417 8.73410946686826 23.88434152269004 5 3 2
1830 131 10 0.09 0.6141418601499224 10.252723556512102 28.82477347831393 -4 2 -1
4479 320 13 0.078 4.127197490400077 4.525548977086666 24.51151973776663 1 4 -2
4478 320 12 0.09 4.3415998507754825 3.1856878111365066 26.279528076146075 1 4 -2
4754 340 8 0.09 11.120857854363809 12.74291155922402 22.907427394275786 1 0 2
1357 97 13 0.078 6.4975956952138505 3.965749342543337 32.0081331947177 1 1 -6
1122 81 2 -0.169 11.00062223824131 2.670267106889105 27.081864874547893 2 1 0
1131 81 11 0.09 10.357374925351001 1.5742216025057298 25.361026670039365 2 1 0
1348 97 4 0.073 6.4288839641703115 4.9242743262192885 32.53122119150409 1 1 -6
5020 359 8 0.09 8.994291719779975 4.267793409446625 24.96627661412241 3 -1 -3
5141 368 3 -0.208 4.020051464508281 0.6367086779555535 30.6227955939456 -1 5 1
4757 340 11 0.09 8.075793785157646 13.695448104918095 23.00584994042928 1 0 2
1349 97 5 -0.209 5.220278486010119 5.546512738732618 32.48680270992642 1 1 -6
5018 359 6 0.09 8.735156513258708 4.452262377271321 23.180155557625874 3 -1 -3
1123 81 3 -0.208 10.989693418090276 1.382573653367197 26.18881321160382 2 1 0
4477 320 11 0.09 2.6293874828044586 2.357443301280462 26.01962946816395 1 4 -2
5143 368 5 -0.209 2.650643586301109 1.3712402323559187 32.4746330638295 -1 5 1
5014 359 2 -0.169 9.439514071820954 6.225116731196249 24.17904853257412 3 -1 -3
5142 368 4 0.073 3.196908362371846 1.7286836763044509 31.254348978974154 -1 5 1
581 42 7 0.09 11.26310205215323 7.828202236094034 29.294132805280025 -2 0 -1