LAMMPS data file via write_data, version 29 Aug 2024, timestep = 1000000, units = real

6174 atoms
18 atom types
5831 bonds
17 bond types
10633 angles
31 angle types
12348 dihedrals
36 dihedral types
3430 impropers
10 improper types

2.1246503182055356 42.87534968179502 xlo xhi
2.1246503182055356 42.87534968179502 ylo yhi
2.1246503182055356 42.87534968179502 zlo zhi

Masses

1 12.011
2 15.999
3 12.011
4 12.011
5 12.011
6 12.011
7 1.008
8 1.008
9 1.008
10 1.008
11 1.008
12 1.008
13 1.008
14 1.008
15 1.008
16 1.008
17 1.008
18 1.008

Pair Coeffs # lj/charmmfsw/coul/long

1 0.078 3.65268 0.01 3.38542
2 0.1 2.93997 0.1 2.93997
3 0.032 3.56359 0.01 3.38542
4 0.078 3.65268 0.01 3.38542
5 0.078 3.65268 0.01 3.38542
6 0.078 3.65268 0.01 3.38542
7 0.024001 2.38761 0.024001 2.38761
8 0.024001 2.38761 0.024001 2.38761
9 0.024001 2.38761 0.024001 2.38761
10 0.024001 2.38761 0.024001 2.38761
11 0.024001 2.38761 0.024001 2.38761
12 0.024001 2.38761 0.024001 2.38761
13 0.024001 2.38761 0.024001 2.38761
14 0.024001 2.38761 0.024001 2.38761
15 0.024001 2.38761 0.024001 2.38761
16 0.024001 2.38761 0.024001 2.38761
17 0.024001 2.38761 0.024001 2.38761
18 0.024001 2.38761 0.024001 2.38761

Bond Coeffs # harmonic

1 360 1.415
2 360 1.415
3 222.5 1.538
4 222.5 1.538
5 222.5 1.538
6 322 1.111
7 322 1.111
8 322 1.111
9 322 1.111
10 322 1.111
11 322 1.111
12 322 1.111
13 322 1.111
14 322 1.111
15 322 1.111
16 322 1.111
17 322 1.111

Angle Coeffs # charmm

1 95 109.7 0 0
2 45 111.5 0 0
3 45 111.5 0 0
4 45 111.5 0 0
5 45.9 108.89 0 0
6 45.9 108.89 0 0
7 45.9 108.89 0 0
8 33.43 110.1 22.53 2.179
9 33.43 110.1 22.53 2.179
10 33.43 110.1 22.53 2.179
11 33.43 110.1 22.53 2.179
12 33.43 110.1 22.53 2.179
13 33.43 110.1 22.53 2.179
14 33.43 110.1 22.53 2.179
15 33.43 110.1 22.53 2.179
16 33.43 110.1 22.53 2.179
17 35.5 108.4 5.4 1.802
18 35.5 108.4 5.4 1.802
19 35.5 108.4 5.4 1.802
20 35.5 108.4 5.4 1.802
21 35.5 108.4 5.4 1.802
22 35.5 108.4 5.4 1.802
23 35.5 108.4 5.4 1.802
24 58.35 113.5 11.16 2.561
25 35.5 108.4 5.4 1.802
26 58.35 113.5 11.16 2.561
27 35.5 108.4 5.4 1.802
28 35.5 108.4 5.4 1.802
29 35.5 108.4 5.4 1.802
30 35.5 108.4 5.4 1.802
31 58.35 113.5 11.16 2.561

Dihedral Coeffs # charmmfsw

1 0.4 1 0 1
2 0.284 3 0 1
3 0.16 3 0 1
4 0.16 3 0 1
5 0.16 3 0 1
6 0.16 3 0 1
7 0.16 3 0 1
8 0.16 3 0 1
9 0.16 3 0 1
10 0.16 3 0 1
11 0.4 1 0 1
12 0.16 3 0 1
13 0.284 3 0 1
14 0.16 3 0 1
15 0.16 3 0 1
16 0.16 3 0 1
17 0.16 3 0 1
18 0.16 3 0 1
19 0.16 3 0 1
20 0.16 3 0 1
21 0.16 3 0 1
22 0.16 3 0 1
23 0.16 3 0 1
24 0.16 3 0 1
25 0.16 3 0 1
26 0.16 3 0 1
27 0.4 1 0 1
28 0.284 3 0 1
29 0.16 3 0 1
30 0.16 3 0 1
31 0.16 3 0 1
32 0.16 3 0 1
33 0.16 3 0 1
34 0.49 3 0 0
35 0.49 3 0 0
36 0.49 3 0 0

Improper Coeffs # harmonic

1 0 0
2 0 0
3 0 0
4 0 0
5 0 0
6 0 0
7 0 0
8 0 0
9 0 0
10 0 0

Atoms # full

4193 233 17 0.09 7.022828392715738 9.4175256874577 11.24939175409976 2 0 0
5403 301 3 0.223 3.13055298701431 3.4840667804509673 7.114581327732682 2 -1 0
5404 301 4 -0.27 4.099868192754401 4.561724201567333 6.656615473917749 2 -1 0
5705 317 17 0.09 4.781914910279896 8.951071232559517 2.5639786284107635 2 2 1
385 22 7 0.09 5.783701294026892 2.4671930643366777 2.4072227196740634 3 0 -2
3881 216 11 0.09 2.506818885496223 7.773743752182877 6.53743743236761 1 3 1
5772 321 12 0.09 6.929082501747229 3.4376388060848235 7.454683808669986 0 5 2
189 11 9 0.09 6.828755081493271 7.080095948455374 6.274976783188797 -1 -3 3
3882 216 12 0.09 3.0712976851701024 8.177693787428943 8.13939210213383 1 3 1
5409 301 9 0.09 3.1813222415471385 3.2321518082529694 10.383731367886503 2 -1 0
4188 233 12 0.09 5.213017967263735 9.687156230721518 9.97098430780238 2 0 0
5412 301 12 0.09 4.265482728471722 4.404227544131837 5.565227325025685 2 -1 0
5402 301 2 -0.395 2.648432136744391 3.551862442222713 8.390558603252963 2 -1 0
5363 298 17 0.09 2.6098012471099032 11.996099165727601 3.626202741070651 1 -1 2
126 7 18 0.09 5.928164772943788 11.333774047664223 5.1995827421852585 3 0 1
5401 301 1 -0.098 3.5621935346459352 2.9627463816726487 9.420896556095608 2 -1 0
4187 233 11 0.09 4.577388418086452 11.197694633792182 10.708430929795943 2 0 0
4186 233 10 0.09 5.012470598204857 11.136161142568143 8.934894310002655 2 0 0
2690 150 8 0.09 6.949689502406925 5.9807164590035615 11.83349573745374 0 -1 -2
114 7 6 -0.27 7.015564161676605 11.489881187271193 4.729979759815304 3 0 1
5410 301 10 0.09 4.99926308296987 4.463884203936059 7.312128648215758 2 -1 0
5866 326 16 0.09 2.992539950732335 11.542143157899417 11.949213957660195 -1 1 -2
4179 233 3 0.223 6.739225141271243 11.228685223257447 10.216421245254057 2 0 0
5699 317 11 0.09 3.923743176009429 7.033137351209837 4.10948846387651 2 2 1
5692 317 4 -0.27 3.900231291708657 6.362180907611769 3.219438004445553 2 2 1
5698 317 10 0.09 3.0942321448220884 5.558693016333682 3.431424330547796 2 2 1
5411 301 11 0.09 3.614789219523736 5.495440471394847 6.75701098640171 2 -1 0
3874 216 4 -0.27 2.5993258568704682 8.57303893952955 7.279427399399717 1 3 1
5700 317 12 0.09 4.936045487095194 5.878629996248253 3.348182891601483 2 2 1
3880 216 10 0.09 3.1432202031680574 9.421404293841803 6.702097298893391 1 3 1
187 11 7 0.09 6.046717115100225 8.520888350501558 6.882600065445695 -1 -3 3
4180 233 4 -0.27 5.327163543924591 10.763504401652051 9.959060956725509 2 0 0
5407 301 7 0.09 4.559303755546017 3.465102505553938 9.307753886170534 2 -1 0
181 11 1 -0.098 6.989383114861825 8.054204232431129 6.69952048983071 -1 -3 3
5775 321 15 0.09 6.352182669148004 2.2202492036655848 5.348236395620334 0 5 2
2486 139 2 -0.395 2.7811254015782056 5.613992410703316 18.802702013197 0 -2 -1
2492 139 8 0.09 4.759395395435378 4.952854096689009 18.443490739803153 0 -2 -1
2487 139 3 0.223 2.177233790514654 5.818389114345894 17.569573645249214 0 -2 -1
5581 311 1 -0.098 4.270409777305566 6.306752172921533 21.791549875231855 1 -2 -2
1198 67 10 0.09 5.595683086335668 2.252811283672391 21.468994244044787 2 1 2
5851 326 1 -0.098 2.568831233523918 10.245621751356015 15.583293586831806 -1 1 -2
5852 326 2 -0.395 2.7834718616254435 10.731167784198913 14.220260903028386 -1 1 -2
5587 311 7 0.09 3.3847918216094723 5.952259034318844 21.24594663959206 1 -2 -2
2638 147 10 0.09 5.094748236873049 9.032145645390132 19.573129486096104 1 1 -1
2498 139 14 0.09 3.773242213223465 5.203604354761295 16.263777640143687 0 -2 -1
2489 139 5 -0.27 3.139729026016693 6.092190161100353 16.396224946654847 0 -2 -1
4194 233 18 0.09 6.816409169995343 10.871099167931156 12.350194031240228 2 0 0
2633 147 5 -0.27 6.510785477695298 10.408948629036734 21.78011532675087 1 1 -1
2491 139 7 0.09 4.0337893226097705 4.2666114897423295 19.853589435056545 0 -2 -1
2632 147 4 -0.27 5.912867840214828 9.72534747626036 19.399790502573733 1 1 -1
2485 139 1 -0.098 3.7578963658418023 4.5859566802117 18.81320206445848 0 -2 -1
2639 147 11 0.09 6.350327674695373 9.338747572487968 18.448334714974866 1 1 -1
2497 139 13 0.09 2.561791756385555 6.145260258556979 15.457663309391561 0 -2 -1
2493 139 9 0.09 3.488776111767054 3.709589703887551 18.25093096729554 0 -2 -1
2641 147 13 0.09 5.93983782565328 11.313568041588768 21.66340375914863 1 1 -1
2640 147 12 0.09 5.430425867115943 10.77931145007144 19.2989573911944 1 1 -1
5857 326 7 0.09 3.597025804261479 9.994608117383315 15.829052208332387 -1 1 -2
2499 139 15 0.09 3.720760798835747 6.969245150111615 16.636763862540782 0 -2 -1
5856 326 6 -0.27 2.183361183320449 12.090573912471775 12.423339219148804 -1 1 -2
5594 311 14 0.09 6.4409617869589475 3.9703618355709973 22.456963483979106 1 -2 -2
5588 311 8 0.09 5.107147791496318 6.1682326538429235 21.133916396001528 1 -2 -2
5593 311 13 0.09 6.945434679795606 5.7163954257123635 21.994661044457562 1 -2 -2
5589 311 9 0.09 4.085826543930338 7.316838176427558 22.051383284299117 1 -2 -2
2643 147 15 0.09 5.833237706932601 9.766985623438305 22.36662122076236 1 1 -1
2631 147 3 0.223 7.002635009233651 9.806229835793545 20.433527626705967 1 1 -1
2689 150 7 0.09 7.05549062872477 4.307796874649892 12.393099851436288 0 -1 -2
2494 139 10 0.09 2.268471381736814 7.921823136850461 17.97994289671819 0 -2 -1
4965 276 15 0.09 4.2086503776770545 2.3474789473546145 16.51119874502509 -1 -1 -1
2636 147 8 0.09 7.093061121510323 7.391768245784606 19.27358017015032 1 1 -1
5859 326 9 0.09 2.233221668482027 10.989053325051474 16.30646680435686 -1 1 -2
5591 311 11 0.09 6.352783121555338 4.656072587941935 25.38147614014735 1 -2 -2
3243 181 3 0.223 4.056531370271516 9.270210331695974 31.591963821404622 0 -1 -1
5585 311 5 -0.27 6.730594693760844 4.961998038104435 22.82265544460276 1 -2 -2
611 34 17 0.09 6.955987566329922 4.674963882073904 32.36971875186231 -2 0 4
3250 181 10 0.09 4.570834786503941 7.699162972135038 30.16511902363449 0 -1 -1
5590 311 10 0.09 4.792560924409333 5.405532759352634 25.46292592601006 1 -2 -2
5044 281 4 -0.27 2.3867578833941634 7.764728116662786 25.84598089991769 -2 1 0
5046 281 6 -0.27 3.2220135654185698 6.712078040543372 28.002295877439416 -2 1 0
1319 74 5 -0.27 6.543488427606914 5.852502215513619 28.49676434641589 -1 1 -1
5586 311 6 -0.27 6.041543046106094 6.972694777547152 23.98580617630581 1 -2 -2
3256 181 16 0.09 5.940703371874726 9.807454336581703 30.75686804583903 0 -1 -1
1589 89 5 -0.27 5.122952002714116 11.24804430442076 25.35359516537669 -3 -1 -1
1328 74 14 0.09 6.097672409330574 4.8800487456064925 28.36531463479147 -1 1 -1
1597 89 13 0.09 4.712519917904379 10.414702452378492 25.96327986445075 -3 -1 -1
1601 89 17 0.09 3.3319114435435986 12.058565998250417 27.366930696664255 -3 -1 -1
608 34 14 0.09 4.551249571375745 4.953507970708265 31.945287350523113 -2 0 4
1627 91 7 0.09 3.693587913764616 3.717009091531854 27.598218527251202 0 4 -1
1628 91 8 0.09 3.5029401686074157 2.6107058751446846 26.193212959186244 0 4 -1
1629 91 9 0.09 5.1181090366052935 2.4525718386990594 27.189759074452244 0 4 -1
3254 181 14 0.09 3.381657365959799 11.162479994172143 30.51836733831772 0 -1 -1
5592 311 12 0.09 4.9891315724582235 3.694157439935929 24.845006415072064 1 -2 -2
1599 89 15 0.09 4.5098707487753815 11.350910218421614 24.48055184650001 -3 -1 -1
5058 281 18 0.09 2.9099960740658766 6.435785935484538 29.030800287739726 -2 1 0
1598 89 14 0.09 6.117137241351443 11.030578691678162 24.930786953365892 -3 -1 -1
1621 91 1 -0.098 3.9762473814456776 2.6832579376520536 27.18219884007863 0 4 -1
3252 181 12 0.09 4.913833378720593 7.360736164748676 31.929893607276536 0 -1 -1
3244 181 4 -0.27 4.1825677076108105 7.801145146209546 31.22436724847481 0 -1 -1
3251 181 11 0.09 3.1991337869519434 7.334281244103764 31.454466153716773 0 -1 -1
3245 181 5 -0.27 3.3228347606200197 10.050827086371555 30.44340465275485 0 -1 -1
5583 311 3 0.223 5.583904249691885 5.575717931074781 23.60922353544624 1 -2 -2
5057 281 17 0.09 3.719678060097893 5.854456032472763 27.570163540341536 -2 1 0
3258 181 18 0.09 5.6387576291052515 10.837813630372318 32.274591016886234 0 -1 -1
5056 281 16 0.09 3.911024773795326 7.587459974275243 28.058016056150677 -2 1 0
5584 311 4 -0.27 5.375025312096598 4.758134600020986 24.857493624506326 1 -2 -2
1327 74 13 0.09 6.249210847730112 6.101251613239427 29.48685009207714 -1 1 -1
1199 67 11 0.09 4.673780530167951 2.2398664123491474 23.00289669162867 2 1 2
3253 181 13 0.09 3.678602395565261 9.603026518578915 29.46210639095299 0 -1 -1
5596 311 16 0.09 6.717009528196363 7.393021512711222 23.30342819309213 1 -2 -2
5598 311 18 0.09 5.176113893849754 7.706746137303937 24.167654091230798 1 -2 -2
5052 281 12 0.09 3.186725231604541 8.500562088254279 26.03061220240822 -2 1 0
1329 74 15 0.09 6.157741076426692 6.526006396220407 27.734801093905098 -1 1 -1
1592 89 8 0.09 6.636091106314588 10.661151210749573 27.524171263624694 -3 -1 -1
3246 181 6 -0.27 5.50223500455683 9.878635057141658 31.706140883177728 0 -1 -1
5582 311 2 -0.395 4.342288787646725 5.490982375868983 22.93782229682365 1 -2 -2
1585 89 1 -0.098 6.087607674902564 11.440139500756441 28.11366701524923 -3 -1 -1
5051 281 11 0.09 2.979828435837544 7.037049795161005 25.304343300449634 -2 1 0
1593 89 9 0.09 5.029707277827024 11.13531934913574 28.370297430938543 -3 -1 -1
1591 89 7 0.09 6.686323371988765 11.674361860873057 28.970955196366162 -3 -1 -1
3255 181 15 0.09 2.257961092199588 9.913316418074483 30.521894404664728 0 -1 -1
5597 311 17 0.09 6.452449320299073 6.9002483185420855 24.99176311233013 1 -2 -2
3257 181 17 0.09 6.0791178267089645 9.30698327925304 32.33520875727825 0 -1 -1
607 34 13 0.09 4.150464453076342 3.340476134097935 32.42826785992853 -2 0 4
3553 198 7 0.09 2.2485353900559266 3.6972976131133697 23.77175398295405 2 3 -1
612 34 18 0.09 6.691484102511744 3.02163506721066 32.566189101978104 -2 0 4
3248 181 8 0.09 3.141701420527374 9.029263463232688 34.79937932473527 0 -1 -1
2188 122 10 0.09 2.90785045241436 11.3936031010453 38.8992513704619 2 2 -3
595 34 1 -0.098 6.6608125557869435 6.28310017146087 34.84139225578461 -2 0 4
5694 317 6 -0.27 4.823268907635431 8.163624357274978 42.57099548773208 2 2 0
3241 181 1 -0.098 3.7595473713565677 8.861798212968928 33.96876417723553 0 -1 -1
600 34 6 -0.27 6.742466660861298 3.9388739203510226 33.16824936075774 -2 0 4
2187 122 9 0.09 5.404127774055627 12.163626113495488 36.06601513329926 2 2 -3
604 34 10 0.09 5.470389003931519 2.525545866228435 35.104394746671844 -2 0 4
5704 317 16 0.09 5.782747337721463 7.6094693888890745 42.55995801797454 2 2 0
4769 265 17 0.09 2.2528056983287814 4.000949795509548 37.301355569394275 1 -2 3
2183 122 5 -0.27 5.515337665739437 10.951774790355701 39.277051018539765 2 2 -3
2716 151 16 0.09 6.734874677975981 2.920334183762718 39.45790510170332 0 0 1
597 34 3 0.223 5.488790903414074 4.423823288295878 33.88058268750784 -2 0 4
5360 298 14 0.09 2.5292231900890223 10.663780992123806 42.34987106260979 1 -1 1
598 34 4 -0.27 5.165674714271775 3.603219687472779 35.15645856607428 -2 0 4
5706 317 18 0.09 4.69358769266646 8.62071034225859 41.61541541162987 2 2 0
602 34 8 0.09 7.0698117484102765 5.540941430270067 35.57378715556597 -2 0 4
2185 122 7 0.09 6.781566356810945 11.416969462794002 37.046264499433136 2 2 -3
5701 317 13 0.09 4.058582296103467 6.713820353103367 40.56994828915555 2 2 0
5703 317 15 0.09 4.873717501209993 5.547642327488606 41.63177338011613 2 2 0
3249 181 9 0.09 4.6835406892140625 9.304225079350587 34.255227186451364 0 -1 -1
2193 122 15 0.09 4.787680495401225 10.387723481257183 39.870943927121004 2 2 -3
2182 122 4 -0.27 3.5543405201951592 11.949334357346238 38.158607031637985 2 2 -3
609 34 15 0.09 3.3792223194478748 4.68115845064934 33.268660544435406 -2 0 4
3247 181 7 0.09 3.96454758736074 7.839125801594148 33.791300429676255 0 -1 -1
596 34 2 -0.395 5.456006589190331 5.790458792116177 34.259245285436236 -2 0 4
5702 317 14 0.09 3.088564948330807 5.428346477120231 41.31348504843082 2 2 0
5693 317 5 -0.27 3.940590816072842 6.082984453210231 41.47758455163307 2 2 0
4758 265 6 -0.27 2.2930073022081077 4.976285014955949 37.91121614146478 1 -2 3
5690 317 2 -0.395 2.5930781662931475 7.926196312537661 42.48693550979843 2 2 0
599 34 5 -0.27 4.324639649419728 4.3403589719565225 32.861810392182065 -2 0 4
605 34 11 0.09 4.087787939109793 3.6587136356749994 35.41149108554369 -2 0 4
603 34 9 0.09 6.488918519866246 7.257247093325465 35.363293541577036 -2 0 4
2189 122 11 0.09 3.638135175227723 11.27778476512502 37.26111316295673 2 2 -3
5691 317 3 0.223 3.7482504299988713 7.049963332698858 42.67733734123688 2 2 0
2192 122 14 0.09 5.728200985595533 10.311380605578323 38.42680828708929 2 2 -3
120 7 12 0.09 6.735959605095674 12.222041142651038 42.779694907562 3 0 0
3242 181 2 -0.395 3.322026180229635 9.504220997499186 32.805796073778595 0 -1 -1
606 34 12 0.09 5.61981539870324 4.034136177000953 36.08060735382821 -2 0 4
4767 265 15 0.09 2.95053933048771 6.465579011423484 35.81303095140515 1 -2 3
4768 265 16 0.09 3.2750275508552673 5.407442297076267 37.88027845920746 1 -2 3
315 18 9 0.09 2.1863557163847886 11.661383943784106 33.578176831255746 -1 2 1
2191 122 13 0.09 6.542464310693853 11.021441197881876 39.798266702199044 2 2 -3
711 40 9 0.09 5.032867971246393 16.53621606661177 7.364839468792724 2 -3 0
3345 186 15 0.09 2.6391454890589765 16.935607566921348 10.858355474269464 1 0 -2
4177 233 1 -0.098 5.892483912665419 13.487198258716914 9.844927144654562 2 0 0
704 40 2 -0.395 3.4067716943891773 15.63092937798268 8.141065989491606 2 -3 0
4185 233 9 0.09 5.017546631354653 13.241723063546278 10.460224758426122 2 0 0
111 7 3 0.223 6.847027668290248 12.837072541913974 4.044880416418248 3 0 1
3333 186 3 0.223 4.5096254175651715 17.956715123780885 11.712442462691506 1 0 -2
3347 186 17 0.09 6.531877066161758 17.146332730258035 12.132345394010308 1 0 -2
636 36 6 -0.27 2.580679360246288 17.948632181588593 3.9294130653512624 2 2 1
712 40 10 0.09 2.4776106665297126 14.32277589934629 5.831754299374558 2 -3 0
648 36 18 0.09 3.4265353780729284 18.713683533040633 3.9828951760587197 2 2 1
1646 92 8 0.09 4.642689460156889 22.220216116475406 3.998049611701692 1 -1 -2
5362 298 16 0.09 2.3323524795572217 13.45993934361718 2.7030375109159746 1 -1 2
4708 262 10 0.09 6.826399972837672 20.427192986561405 3.034812322873117 0 0 1
110 7 2 -0.395 5.417951560512106 12.972415709074706 3.9060462939669414 3 0 1
3336 186 6 -0.27 6.021717721565327 17.881862455652787 11.499043737964309 1 0 -2
109 7 1 -0.098 5.081147053171879 13.94729235645253 3.0099403448294053 3 0 1
4184 233 8 0.09 6.209730799553743 14.5453429131146 9.944143931379303 2 0 0
3344 186 14 0.09 4.28061683262314 16.481708499913573 10.137027682226748 1 0 -2
3346 186 16 0.09 6.295326412668615 17.646006791825442 10.4234099802644 1 0 -2
709 40 7 0.09 3.645087599683473 16.473262860070133 6.166385474237293 2 -3 0
646 36 16 0.09 2.8940650251685707 17.03562885793268 4.4736359442458795 2 2 1
3331 186 1 -0.098 3.9884238522705893 19.513748599528594 9.86025250819072 1 0 -2
3343 186 13 0.09 3.8906552593307735 15.847727860947375 11.698875512133238 1 0 -2
3339 186 9 0.09 3.55500571797881 18.772861500233187 9.10115994783545 1 0 -2
3338 186 8 0.09 3.5316963354486592 20.516647759793777 9.590546285966925 1 0 -2
3335 186 5 -0.27 3.745505852422333 16.70148761309892 11.060349040241368 1 0 -2
115 7 7 0.09 5.6720100172320995 14.869221762317892 2.9536312728603367 3 0 1
710 40 8 0.09 4.702023435772227 14.96311847873271 6.618508472010486 2 -3 0
4798 267 10 0.09 6.43230324784136 20.004855923771984 6.819829637222904 3 1 -3
3332 186 2 -0.395 3.921913014691287 19.2161835465115 11.26896093803382 1 0 -2
4799 267 11 0.09 7.006768042081195 19.993428539076042 5.15571631725198 3 1 -3
633 36 3 0.223 2.1454542563864356 17.77467245457479 2.5178183932383904 2 2 1
3337 186 7 0.09 5.047710905972123 19.573981349026635 9.603771255039376 1 0 -2
706 40 4 -0.27 2.273447993200336 13.915603671389563 6.814137305292587 2 -3 0
4183 233 7 0.09 5.860037398900328 13.282377977351347 8.720367220407411 2 0 0
703 40 1 -0.098 4.229660268647436 15.889669728506652 6.9747449877960435 2 -3 0
123 7 15 0.09 6.8356673694687515 13.851615553596757 5.980141791318488 3 0 1
116 7 8 0.09 4.103716060014188 14.259736525396802 3.36961895910528 3 0 1
3348 186 18 0.09 6.47808330866646 18.900949607539257 11.758237679198443 1 0 -2
716 40 14 0.09 2.419055621555688 13.986415440299314 9.614638330878176 2 -3 0
1645 92 7 0.09 4.951592441965736 21.790928610690294 5.6563063414944965 1 -1 -2
705 40 3 0.223 2.144966178225093 15.077214981690949 7.821691699989437 2 -3 0
4178 233 2 -0.395 6.814741716361349 12.598880590270491 10.479073243377199 2 0 0
714 40 12 0.09 3.0386716024096874 13.290672389848302 7.225313329925806 2 -3 0
4806 267 18 0.09 6.951119238702551 17.66949072758642 7.357373645485959 3 1 -3
1647 92 9 0.09 3.2665064615930937 22.190047240053154 5.050082375053737 1 -1 -2
4709 262 11 0.09 5.398178680731861 19.963442158342243 2.20075152741325 0 0 1
4705 262 7 0.09 6.746323593470243 17.976144867037085 2.7329540731627744 0 0 1
1654 92 16 0.09 4.3714235926257565 22.48673158910622 7.747663274973753 1 -1 -2
2540 142 2 -0.395 3.502537479574201 14.31414027609865 18.322167555849102 0 1 3
3214 179 10 0.09 7.012006406509385 19.522314622673417 18.050502432306537 2 -1 -3
2546 142 8 0.09 3.816283393961002 13.665336337900502 16.32284549629411 0 1 3
2547 142 9 0.09 2.7382284863268946 15.137737960479914 16.43723000268729 0 1 3
3208 179 4 -0.27 7.01318473680824 20.507173563390065 17.498902121891504 2 -1 -3
2556 142 18 0.09 3.6818305613592663 13.713138142091337 20.730008577163574 0 1 3
3207 179 3 0.223 7.087386670943805 21.68907097310545 18.459741629490118 2 -1 -3
6053 337 5 -0.27 6.540373866987934 15.091318977631087 16.387035009413477 0 1 0
2539 142 1 -0.098 3.0801715452125107 14.218986264805968 16.939012273455724 0 1 3
3919 218 13 0.09 2.2563853454399436 21.897694624182595 13.27088048735207 0 1 0
2555 142 17 0.09 4.154504441188837 15.375315053070235 20.472212711699036 0 1 3
3222 179 18 0.09 5.872276636783903 21.066009169383697 20.105427112612528 2 -1 -3
3935 219 11 0.09 5.417090998322388 17.660251375191493 21.085133139051344 1 1 1
6063 337 15 0.09 6.669620843598759 14.302730362678261 17.13003926360352 0 1 0
2544 142 6 -0.27 3.245884300365778 14.677748289969534 20.60427422149725 0 1 3
3927 219 3 0.223 7.0042706187290875 17.26233987305105 22.476281843523758 1 1 1
2548 142 10 0.09 3.031225226998308 16.831969546418147 18.683144516405303 0 1 3
3210 179 6 -0.27 5.831860036950081 21.851642062156635 19.341493271951972 2 -1 -3
3932 219 8 0.09 6.186659584721467 14.834906655409954 22.236088299849957 1 1 1
6049 337 1 -0.098 6.442279748732553 13.492821149990318 14.01501524560562 0 1 0
3928 219 4 -0.27 5.521252778582641 17.374083603318024 22.12195161739145 1 1 1
3340 186 10 0.09 3.160228048688647 18.187367341859176 13.257034498314692 1 0 -2
3216 179 12 0.09 6.096283326478822 20.451250295165018 16.862394237919215 2 -1 -3
6062 337 14 0.09 6.5905977106850315 16.038020753426252 16.89062480413025 0 1 0
2541 142 3 0.223 2.4211762444905527 14.736111956413865 19.286865381977094 0 1 3
5867 326 17 0.09 2.5540358734514084 13.044303334858363 12.845573782129035 -1 1 -2
2428 135 16 0.09 2.9868773289282835 20.476155238588575 17.67646867830929 1 -1 -1
3341 186 11 0.09 4.78590096238676 18.52239358160648 13.877708299705992 1 0 -2
3334 186 4 -0.27 4.166668228508641 17.817061076957152 13.227253965006174 1 0 -2
3934 219 10 0.09 5.020187658010739 16.443587552201684 22.355812037831534 1 1 1
6055 337 7 0.09 5.83601533898624 14.241666485065444 13.474813381142999 0 1 0
6061 337 13 0.09 5.558475302242672 15.020733906185786 15.889661301094348 0 1 0
2418 135 6 -0.27 2.3581099728668766 21.05808699254344 16.99342978490533 1 -1 -1
2430 135 18 0.09 2.9769317703677087 21.32848933424889 16.096446651428483 1 -1 -1
6056 337 8 0.09 5.810148451994924 12.920352893563319 14.755957687567541 0 1 0
2554 142 16 0.09 2.5909550581912177 14.930201547070794 21.419089331920492 0 1 3
6060 337 12 0.09 6.484074219395428 16.252143013419975 14.012660252161258 0 1 0
3342 186 12 0.09 4.271203381683874 16.807318558654018 13.520022020548945 1 0 -2
3220 179 16 0.09 4.889605123358915 21.6282514463815 18.750663589317412 2 -1 -3
6057 337 9 0.09 6.709735558043229 12.70766769161757 13.255246021793319 0 1 0
3939 219 15 0.09 6.782404109555308 16.080137678104226 24.311968534010656 1 1 1
250 14 16 0.09 3.9275896969766455 21.892946280598974 25.276581809846785 -1 -1 1
4042 225 10 0.09 6.236614556638842 14.062865924597622 29.683076591292615 1 2 -1
4972 277 4 -0.27 4.584005029787326 19.649840407244675 27.580123717006458 5 -1 1
4978 277 10 0.09 4.2589738059386875 20.643963159985596 27.276670701955354 5 -1 1
1594 89 10 0.09 4.864222937965415 13.884092541534635 24.34935346165611 -3 -1 -1
4979 277 11 0.09 4.980791735262287 19.161617393657565 26.647277363783253 5 -1 1
1602 89 18 0.09 3.0477064735265573 12.70653485559587 25.72437111347944 -3 -1 -1
4986 277 18 0.09 2.5984272297920756 18.57864228094224 30.236094513971512 5 -1 1
1596 89 12 0.09 5.584621453347569 14.669804886984926 25.798765733685322 -3 -1 -1
4982 277 14 0.09 2.338115212123783 18.61467270370888 26.37541690440339 5 -1 1
4970 277 2 -0.395 3.656247435546077 17.452467539149875 28.107067761018502 5 -1 1
3936 219 12 0.09 5.060912190826332 18.200646059336712 22.682989218949622 1 1 1
4977 277 9 0.09 5.712195899977594 16.770180378779465 27.89966792626139 5 -1 1
4971 277 3 0.223 3.468223441741628 18.827444740904113 28.16783899078611 5 -1 1
4974 277 6 -0.27 3.235521746069726 19.291612560673183 29.636673866413975 5 -1 1
1600 89 16 0.09 3.575674421576072 13.799723916193319 27.11104110508608 -3 -1 -1
4980 277 12 0.09 5.482478427874996 19.69043716082935 28.261232222615902 5 -1 1
4976 277 8 0.09 5.311403398473509 17.582597877748178 29.522275594112703 5 -1 1
1587 89 3 0.223 5.061199816859512 12.538189656046365 26.190602113982678 -3 -1 -1
3937 219 13 0.09 7.013431815950958 17.84542749470858 24.75794391838258 1 1 1
1586 89 2 -0.395 6.039161179258194 12.589922332879421 27.243570321001933 -3 -1 -1
4969 277 1 -0.098 4.9010535293352 16.967377068174795 28.653034243882562 5 -1 1
4043 225 11 0.09 6.151007572667699 15.170947086399469 31.069783559972336 1 2 -1
4975 277 7 0.09 4.751186496320596 15.974163758448748 29.053499433526646 5 -1 1
246 14 12 0.09 6.788893722495126 21.106120477772457 25.924528046937 -1 -1 1
4300 239 16 0.09 5.476216078186797 21.98312784542883 29.2729066510587 2 0 0
251 14 17 0.09 4.89168962662171 20.572312736559105 24.555939991169623 -1 -1 1
1588 89 4 -0.27 5.449110935108068 13.702078102162035 25.249187636793195 -3 -1 -1
4984 277 16 0.09 2.726558508087468 20.304234892130903 29.63849173646692 5 -1 1
4296 239 12 0.09 5.718672747895335 20.946868130424775 31.593063308061918 2 0 0
1595 89 11 0.09 6.429907773651049 13.453351446668682 24.723903127234575 -3 -1 -1
4985 277 17 0.09 4.178018781734565 19.36499384661759 30.156428429613598 5 -1 1
4288 239 4 -0.27 5.810465569701933 21.946719671929102 31.980064860859585 2 0 0
252 14 18 0.09 4.109998227999082 21.629122018191328 23.535627447424368 -1 -1 1
4973 277 5 -0.27 2.186218012630705 18.99575698955771 27.39032496756172 5 -1 1
236 14 2 -0.395 6.683309400542823 22.027189537943595 23.57154973882546 -1 -1 1
240 14 6 -0.27 4.614829249994742 21.595228849857328 24.422523718446932 -1 -1 1
4036 225 4 -0.27 6.674159739290468 14.34017897841301 30.680392321770167 1 2 -1
237 14 3 0.223 5.810915503634591 22.484836834637864 24.548310784472726 -1 -1 1
1590 89 6 -0.27 3.6506396345532535 12.834615484616409 26.62467269855641 -3 -1 -1
238 14 4 -0.27 6.485223741188085 22.19369734933223 25.870152077622595 -1 -1 1
4044 225 12 0.09 6.45047006593582 13.533233030054843 31.407767478829552 1 2 -1
4294 239 10 0.09 4.8024394944038065 22.408985105566043 32.01019176692612 2 0 0
5796 322 18 0.09 6.31264609852292 18.616204637840802 32.506787756501865 0 2 1
244 14 10 0.09 5.87713241453198 22.271235651581808 26.75614862381611 -1 -1 1
3942 219 18 0.09 7.115407805834157 19.452973078754674 22.590889719870635 1 1 1
2169 121 9 0.09 5.965724629656285 20.942989695882716 36.92278368910992 0 0 1
317 18 11 0.09 2.6542947272257393 15.292346929584225 32.94519783034336 -1 2 1
2181 122 3 0.223 4.943873822414807 12.336958960314762 38.78820667035565 2 2 -3
2195 122 17 0.09 4.224481932541562 14.28251814747759 39.63786524039145 2 2 -3
5795 322 17 0.09 4.7420436461721724 18.83221320701769 33.33826539226084 0 2 1
5784 322 6 -0.27 5.83620699973747 18.753615282684976 33.413077997940746 0 2 1
2180 122 2 -0.395 5.661448049071165 13.056574698863733 37.80318116476184 2 2 -3
582 33 6 -0.27 3.007736851281153 22.20249485819521 41.29886600009701 0 1 1
2190 122 12 0.09 3.080016206142156 12.922418792323072 37.98081044939656 2 2 -3
206 12 8 0.09 2.1702707931705247 18.38997536528036 36.02649828047939 0 -2 0
5780 322 2 -0.395 5.260818873972725 18.035367547216495 35.60732157786835 0 2 1
5783 322 5 -0.27 6.065605332484274 16.385386603388575 33.971555203656486 0 2 1
117 7 9 0.09 4.991251734820075 13.579132236098957 42.67103780381815 3 0 0
5786 322 8 0.09 5.262510268969282 17.474439178053707 37.670715917917136 0 2 1
2168 121 8 0.09 6.222784121754222 22.08120386563334 35.52861707279823 0 0 1
4704 262 6 -0.27 6.435877455010608 20.155087508214205 40.329989369890285 0 0 0
5793 322 15 0.09 6.4533097754971624 15.606185781942461 34.639223863824824 0 2 1
5794 322 16 0.09 6.016610485770887 19.739829641308617 33.85181570737092 0 2 1
632 36 2 -0.395 3.4271964314105214 17.49782386423692 42.7203581262974 2 2 0
5787 322 9 0.09 6.3767540206762625 16.448273153805815 36.58962980146207 0 2 1
2186 122 8 0.09 7.057535420702264 12.975087856884075 36.2442205467937 2 2 -3
214 12 16 0.09 2.26583080869713 21.798420153958837 34.09651882130626 0 -2 0
4701 262 3 0.223 7.136510449015216 19.95983899074966 41.63853407209865 0 0 0
322 18 16 0.09 2.866397582267947 13.675765597202103 35.46056869370382 -1 2 1
2194 122 16 0.09 4.073985009549083 12.924689768494156 40.693154955707584 2 2 -3
4702 262 4 -0.27 6.332184415903448 20.501488199059153 42.78432757710209 0 0 0
4714 262 16 0.09 5.634126273843675 19.393782149833456 40.231425116490456 0 0 0
5779 322 1 -0.098 5.400489923530056 17.017882571338603 36.68653482937491 0 2 1
5781 322 3 0.223 6.186800223597017 17.774358643677445 34.54928063253226 0 2 1
631 36 1 -0.098 3.4712548725832018 17.65339431729936 41.32881279544421 2 2 0
4710 262 12 0.09 6.101546351373784 21.61464647104168 42.57593141642981 0 0 0
207 12 9 0.09 2.91748018831147 19.905807047327535 35.58320592081647 0 -2 0
594 33 18 0.09 3.1294034542771794 21.102512912350097 41.110982641331816 0 1 1
5785 322 7 0.09 4.583190826457865 16.28083111727414 36.60218585529843 0 2 1
637 36 7 0.09 4.406927343763044 17.14927457681855 40.973158482870446 2 2 0
639 36 9 0.09 2.6870076032758465 17.182305028733047 40.74790397064207 2 2 0
5792 322 14 0.09 4.94402173405792 16.266146184400192 33.75083150507413 0 2 1
5791 322 13 0.09 6.4858663121242 16.26518758945057 32.98691640218347 0 2 1
4716 262 18 0.09 5.949066142651485 21.147638641025885 40.13576584088672 0 0 0
4295 239 11 0.09 6.196880022798448 21.822405358204215 33.002974837150035 2 0 0
2196 122 18 0.09 5.714043366432742 13.67757755686994 40.27853143651251 2 2 -3
2161 121 1 -0.098 6.436790558282986 21.879290813133206 36.64003335237592 0 0 1