LAMMPS data file via write_data, version 29 Aug 2024, timestep = 1000000, units = real

6174 atoms
18 atom types
5831 bonds
17 bond types
10633 angles
31 angle types
16464 dihedrals
48 dihedral types

2.582076400852557 42.41792359914358 xlo xhi
2.582076400852557 42.41792359914358 ylo yhi
2.582076400852557 42.41792359914358 zlo zhi

Masses

1 12.011
2 12.011
3 12.011
4 12.011
5 12.011
6 15.999
7 1.008
8 1.008
9 1.008
10 1.008
11 1.008
12 1.008
13 1.008
14 1.008
15 1.008
16 1.008
17 1.008
18 1.008

Pair Coeffs # lj/charmmfsw/coul/long

1 0.078 3.65268 0.01 3.38542
2 0.055999 3.58141 0.01 3.38542
3 0.055999 3.58141 0.01 3.38542
4 0.032 3.56359 0.01 3.38542
5 0.078 3.65268 0.01 3.38542
6 0.192101 3.14487 0.192101 3.14487
7 0.024001 2.38761 0.024001 2.38761
8 0.024001 2.38761 0.024001 2.38761
9 0.024001 2.38761 0.024001 2.38761
10 0.035 2.38761 0.035 2.38761
11 0.035 2.38761 0.035 2.38761
12 0.035 2.38761 0.035 2.38761
13 0.035 2.38761 0.035 2.38761
14 0.045 2.38761 0.045 2.38761
15 0.024001 2.38761 0.024001 2.38761
16 0.024001 2.38761 0.024001 2.38761
17 0.024001 2.38761 0.024001 2.38761
18 0.045999 0.400014 0.045999 0.400014

Bond Coeffs # harmonic

1 222.5 1.528
2 222.5 1.53
3 222.5 1.538
4 222.5 1.538
5 428 1.42
6 322 1.111
7 322 1.111
8 322 1.111
9 309 1.111
10 309 1.111
11 309 1.111
12 309 1.111
13 309 1.111
14 322 1.111
15 322 1.111
16 322 1.111
17 545 0.96

Angle Coeffs # charmm

1 58 115 8 2.561
2 58.35 113.5 11.16 2.561
3 53.35 114 8 2.561
4 75.7 110 0 0
5 34.6 110.1 22.53 2.179
6 34.6 110.1 22.53 2.179
7 34.6 110.1 22.53 2.179
8 34.6 110.1 22.53 2.179
9 34.6 110.1 22.53 2.179
10 26.5 110.1 22.53 2.179
11 26.5 110.1 22.53 2.179
12 34.5 110.1 22.53 2.179
13 33.43 110.1 22.53 2.179
14 33.43 110.1 22.53 2.179
15 33.43 110.1 22.53 2.179
16 50 106 0 0
17 35.5 108.4 5.4 1.802
18 75.7 110.1 0 0
19 34.5 110.1 22.53 2.179
20 35.5 108.4 5.4 1.802
21 35.5 108.4 5.4 1.802
22 35.5 108.4 5.4 1.802
23 26.5 110.1 22.53 2.179
24 35.5 109 5.4 1.802
25 35.5 108.4 5.4 1.802
26 35.5 109 5.4 1.802
27 33.43 110.1 22.53 2.179
28 35.5 108.4 5.4 1.802
29 45.9 108.89 0 0
30 33.43 110.1 22.53 2.179
31 26.5 110.1 22.53 2.179

Dihedral Coeffs # charmmfsw

1 0.15 2 0 1
2 0.2 3 0 1
3 0.16 3 0 1
4 0.2 3 0 1
5 0.3 1 0 1
6 0.195 3 180 1
7 0.22 3 0 1
8 0.195 3 0 1
9 0.195 3 0 1
10 1.33 1 0 1
11 0.22 3 0 1
12 0.16 3 0 1
13 0.2 3 0 1
14 0.195 3 0 1
15 0.195 3 0 1
16 0.5 1 180 1
17 0.195 3 0 1
18 0.18 3 0 1
19 0.195 3 0 1
20 0.195 3 180 1
21 0.2 3 0 1
22 0.2 3 0 1
23 0.22 3 0 1
24 0.16 3 0 1
25 0.16 3 0 1
26 0.16 3 0 1
27 0.16 3 0 1
28 0.2 3 0 1
29 0 3 0 1
30 0.22 3 0 1
31 0.16 3 0 1
32 0.16 3 0 1
33 0.195 3 0 1
34 0.18 3 0 1
35 0.2 3 0 1
36 0.195 3 0 1
37 0.16 3 0 1
38 0.2 3 0 1
39 0.2 3 0 1
40 0.08 3 180 0
41 0.11 4 0 0
42 0.2 5 0 0
43 0.3 3 0 0
44 0.18 2 0 0
45 0.46 3 0 0
46 0.7 2 0 0
47 0.4 3 0 0
48 0.4 5 0 0

Atoms # full

3657 204 3 -0.206 10.635481580169802 4.636890585922629 12.42737014266296 2 1 0
3665 204 11 0.09 11.996472324223992 5.5979222243997455 11.121876028229696 2 1 0
4121 229 17 0.09 7.05254388487443 4.574624201062986 9.31527890656469 2 1 1
3656 204 2 -0.162 11.026794416526018 5.9065679356899965 11.585484201992072 2 1 0
3664 204 10 0.09 11.159089828333302 6.735863631336574 12.308812578584172 2 1 0
1119 63 3 -0.206 11.590567862505038 5.663629269608906 6.478381594107118 1 0 -1
1120 63 4 0.15 11.005206357827598 4.242819843398157 6.63681821460395 1 0 -1
1130 63 14 0.09 10.012627976629783 4.234075311515982 7.143770978346587 1 0 -1
1117 63 1 -0.273 9.39812076913191 7.009057183180298 5.889245318353554 1 0 -1
3661 204 7 0.09 8.969139106775895 6.384708128368634 10.75490561099413 2 1 0
3663 204 9 0.09 10.125023620026896 5.367936831953463 9.730513996155526 2 1 0
3655 204 1 -0.273 10.061904688606958 6.19989760607638 10.425185385335508 2 1 0
4118 229 14 0.09 4.648968169676045 3.8498920054275385 9.022767219859226 2 1 1
1124 63 8 0.09 8.819225644260616 6.053752713729449 5.869650008948492 1 0 -1
214 12 16 0.09 7.7803190841230245 3.905553841093967 6.565814158463134 0 2 -1
6055 337 7 0.09 4.380301773023218 4.337486950138971 3.333620778318473 0 2 1
3382 188 16 0.09 8.389427968002654 15.510331080719618 2.8483899913480286 0 1 2
1125 63 9 0.09 9.325074799930075 7.462262737100006 6.914451691038748 1 0 -1
2100 117 12 0.09 3.96039437143508 12.586553908620447 11.842434768367326 -1 0 0
4303 240 1 -0.273 11.097669089957561 10.828005022489446 11.029409416492834 -2 0 1
4120 229 16 0.09 6.024534366105412 5.219173377702083 10.670941917800878 2 1 1
4108 229 4 0.15 4.986837969969431 4.91671682781519 8.769734734107526 2 1 1
5640 314 6 -0.645 8.003243962282113 9.962035063383066 8.218967995325517 1 0 1
4110 229 6 -0.645 5.4526959554320245 5.047534768165879 7.464184180542822 2 1 1
1118 63 2 -0.162 10.838457971470012 6.670639277057962 5.570559345573065 1 0 -1
5635 314 1 -0.273 6.9844872558517785 8.038506585845667 11.953083172618408 1 0 1
5644 314 10 0.09 8.217667982371793 8.51973533753291 10.130560224811575 1 0 1
4117 229 13 0.09 3.5101583463287964 6.125395177324005 9.951344292401906 2 1 1
4109 229 5 -0.268 6.2248994488107785 5.266439787470675 9.594865057443691 2 1 1
1126 63 10 0.09 11.531175408452603 7.572610682840868 5.586957175668152 1 0 -1
1123 63 7 0.09 8.877592010054247 7.740796265323531 5.246073437841883 1 0 -1
4122 229 18 0.414 5.942557832944668 4.193597509985223 7.306281288343063 2 1 1
5643 314 9 0.09 6.577187282180505 7.214053471074676 11.415140420802432 1 0 1
1127 63 11 0.09 10.979477807212408 6.3196196746262014 4.558007166207181 1 0 -1
4116 229 12 0.09 4.3185949668645405 6.9850770517315715 8.537695928065016 2 1 1
4107 229 3 -0.206 3.8285029869902454 6.003319492228924 8.88671898000059 2 1 1
2999 167 11 0.09 4.4741717908677 3.32960422950664 11.332330679998124 1 1 1
4119 229 15 0.09 6.605447772184039 6.305581044126166 9.432435548867456 2 1 1
2997 167 9 0.09 2.8482461162851562 5.017092696233641 12.185314959206336 1 1 1
3662 204 8 0.09 10.302062280697914 7.127515824919595 9.88203525527651 2 1 0
5636 314 2 -0.162 7.501556924028331 9.026687917714511 10.86961145365343 1 0 1
5646 314 12 0.09 5.706640274599485 8.887797833714359 9.634273204223467 1 0 1
215 12 17 0.09 8.191573891770009 2.924043754983821 5.135475698798206 0 2 -1
213 12 15 0.09 6.5689488339070135 3.792255891598561 5.207202523710922 0 2 -1
3113 173 17 0.09 9.766219376090204 12.726818251382419 8.9281982690277 2 0 2
1122 63 6 -0.645 10.833169603138543 3.732397912222048 5.280998991473291 1 0 -1
1134 63 18 0.414 10.145787133371194 4.292089273570535 4.874553652985437 1 0 -1
2093 117 5 -0.268 5.9574710276112395 14.139671513938303 11.065262352897555 -1 0 0
1129 63 13 0.09 11.58214193797153 6.173381386778711 7.404652451661979 1 0 -1
3667 204 13 0.09 10.507888672654211 3.7379803999007963 11.847869942757683 2 1 0
4313 240 11 0.09 10.82467708633338 8.827943694029482 11.714603809431683 -2 0 1
4861 271 1 -0.273 2.897059349787257 11.019567990242697 2.660221405981397 2 1 2
4959 276 9 0.09 12.294978177224742 7.954659840652298 7.7334925621249715 -1 -1 1
5645 314 11 0.09 8.075813389169781 9.782039380827413 11.256145476632422 1 0 1
1121 63 5 -0.268 11.955570773629253 3.2992149773372956 7.368488885172173 1 0 -1
1131 63 15 0.09 12.060724702718117 3.605893470672177 8.420466038168417 1 0 -1
1430 80 8 0.09 6.402603323021925 15.085328264309435 8.185568103211441 -1 0 -1
2870 160 8 0.09 3.8353101791654085 8.953921189532256 11.518381649983017 2 -3 0
1431 80 9 0.09 7.692529317803491 14.342793333895758 7.214105024770835 -1 0 -1
203 12 5 -0.268 7.382317478405507 3.2328179374168022 5.778834445083558 0 2 -1
3105 173 9 0.09 11.89418502971596 11.758746063877 2.8404727338456675 2 0 2
2092 117 4 0.15 4.983865858714161 14.512189622456367 12.25020845118427 -1 0 0
4877 271 17 0.09 8.76315999925477 10.440931186612747 3.7687609372297968 2 1 2
5598 311 18 0.414 3.1008809118551297 12.180380071598098 6.655482896918465 0 -1 -1
2102 117 14 0.09 4.718295695357671 15.546825247162094 12.228384748551568 -1 0 0
3372 188 6 -0.645 5.8920166386512856 14.748366137514719 2.6616709227963953 0 1 2
208 12 10 0.09 8.836277282797784 2.814880935001627 8.092565630090304 0 2 -1
4875 271 15 0.09 7.614183596011353 10.153775804499169 5.2140852057133795 2 1 2
4865 271 5 -0.268 7.735275057226831 10.151712059679987 4.1520740108136724 2 1 2
4862 271 2 -0.162 4.346845439012886 11.505773846193957 2.7949190125575636 2 1 2
3098 173 2 -0.162 10.749598486075927 12.971293345868187 4.282846602392438 2 0 2
3107 173 11 0.09 10.591195879644195 14.025557632922819 4.488520496523461 2 0 2
3097 173 1 -0.273 11.738797956224847 12.868942353310656 3.117242571539127 2 0 2
4876 271 16 0.09 7.597830849563039 9.110361839577784 3.6870182464262458 2 1 2
5649 314 15 0.09 5.599311133366706 10.328524351146962 7.126285684100702 1 0 1
3109 173 13 0.09 12.172584348204243 13.141454987179204 5.9091304941840646 2 0 2
4873 271 13 0.09 5.32920110244023 9.568059232362293 2.732593258835385 2 1 2
5639 314 5 -0.268 5.860497660280193 11.123834813793922 7.884537939988576 1 0 1
5637 314 3 -0.206 6.363525261934433 9.708939004260596 9.994037390318539 1 0 1
4870 271 10 0.09 4.404880949276862 12.465696540043494 3.3186579933269216 2 1 2
4957 276 7 0.09 12.04724229511521 8.959655271379592 9.148890636760441 -1 -1 1
4863 271 3 -0.206 5.366923762046662 10.526036203614598 3.3246488104399035 2 1 2
2863 160 1 -0.273 3.368932524890173 8.574525323030576 12.471564084791009 2 -3 0
2105 117 17 0.09 6.234826194389344 13.03556683003028 11.0021541304196 -1 0 0
5652 314 18 0.414 8.299820786013944 10.669551656387428 7.574916038083963 1 0 1
2091 117 3 -0.206 3.6661045036682482 13.696011692486238 12.074620797837094 -1 0 0
2101 117 13 0.09 2.9924110347493404 13.958471746714322 11.178177508981085 -1 0 0
5650 314 16 0.09 4.974826851043581 11.372622198088509 8.46250683401859 1 0 1
6050 337 2 -0.162 3.686049950423996 2.7436150119075666 4.561014805277864 0 2 1
1423 80 1 -0.273 7.046988207560798 15.228978569967506 7.280388300460289 -1 0 -1
6058 337 10 0.09 4.038092798819271 3.314065615383787 5.4971436696534095 0 2 1
4864 271 4 0.15 6.84074876000116 11.07935746104024 3.3821461444401817 2 1 2
3111 173 15 0.09 10.588488897145357 11.235650597726796 8.115869305993368 2 0 2
4304 240 2 -0.162 11.451820792387899 9.656884187559374 11.987961918674237 -2 0 1
5638 314 4 0.15 6.945530854262071 10.633113518566784 8.897457276021765 1 0 1
3102 173 6 -0.645 9.02826992591438 12.300425148179622 6.4176060115538665 2 0 2
4115 229 11 0.09 2.7726039891368073 5.460529219612187 7.088439535986832 2 1 1
3384 188 18 0.414 6.0766294196548944 13.854908289364849 2.997213603323605 0 1 2
2990 167 2 -0.162 4.548328963234749 3.5959422241987555 12.417143616401566 1 1 1
3100 173 4 0.15 10.266467753774485 12.846652264650636 6.801079755605243 2 0 2
5651 314 17 0.09 6.335220129930169 11.946901191540148 7.30548966089501 1 0 1
3099 173 3 -0.206 11.316020786082902 12.490626081475614 5.672388040779872 2 0 2
3114 173 18 0.414 8.831391335424566 12.529963745095309 5.498851142690263 2 0 2
1432 80 10 0.09 5.368521697510385 14.593174235985385 5.806879312461847 -1 0 -1
5586 311 6 -0.645 3.1629071492876664 11.262421782341274 6.448949669890746 0 -1 -1
5648 314 14 0.09 7.460843310612594 11.535976219405335 9.309528177130403 1 0 1
4872 271 12 0.09 4.980018562411148 10.247741266922464 4.32294786305377 2 1 2
4309 240 7 0.09 11.355656739925495 10.650435180218054 9.987185776853615 -2 0 1
3101 173 5 -0.268 10.5669439645518 12.307282332754125 8.172428172538293 2 0 2
1440 80 18 0.414 4.428259036252064 15.349338654264328 4.1333842078756255 -1 0 -1
3108 173 12 0.09 11.562545092149835 11.446957975802611 5.657795116004177 2 0 2
2103 117 15 0.09 5.329458967756653 14.39414088814071 10.105955700589707 -1 0 0
4878 271 18 0.414 6.342930351145675 12.074903980930046 4.873045336147732 2 1 2
6049 337 1 -0.273 3.507091630944255 3.7930604395860152 3.460825023655023 0 2 1
3112 173 16 0.09 11.589447630593888 12.549306202494737 8.601553167060484 2 0 2
4866 271 6 -0.645 6.861438408556478 12.294540137126393 4.089312785958537 2 1 2
5647 314 13 0.09 5.80737398157949 10.376393822707959 10.630928793643443 1 0 1
3106 173 10 0.09 9.859154428290687 12.540486896203022 4.049688567902543 2 0 2
3110 173 14 0.09 10.117599999838616 13.904301588783646 6.787728923291625 2 0 2
6056 337 8 0.09 2.6580448176200933 4.477132492703494 3.6751053919947774 0 2 1
2104 117 16 0.09 6.948600181155789 14.739082235851493 11.094284533068246 -1 0 0
1424 80 2 -0.162 6.102553645143405 15.395437563130562 6.065819841928294 -1 0 -1
1433 80 11 0.09 6.660799585138581 15.618915810044413 5.133026412602184 -1 0 -1
4311 240 9 0.09 10.090599367026314 11.201109840166207 11.146683648945777 -2 0 1
4310 240 8 0.09 11.873476392297158 11.577030535111017 11.261998927670241 -2 0 1
2998 167 10 0.09 5.34661967268487 4.368531054474156 12.407045147685384 1 1 1
5597 311 17 0.09 2.5952199988036995 9.138049288533002 7.254097483896057 0 -1 -1
5955 331 15 0.09 3.088493788355615 13.638948093508919 18.221530980901093 2 0 2
3094 172 16 0.09 7.014382910507508 5.62869091079197 20.800688347834015 0 2 1
3083 172 5 -0.268 7.141188742098177 4.508952312423823 20.703200978048585 0 2 1
2099 117 11 0.09 3.0258019686617117 12.804451587362802 13.934094307522473 -1 0 0
3084 172 6 -0.645 5.6863905809396895 4.258159709305367 18.85036510753763 0 2 1
3082 172 4 0.15 7.090901065039179 4.20354633353871 19.223118015401425 0 2 1
3092 172 14 0.09 7.6988256669148765 4.962551533564252 18.67436101743933 0 2 1
3096 172 18 0.414 5.72069366540269 4.172030445297761 17.897248319771258 0 2 1
2789 155 17 0.09 8.322445714567856 5.558259933356451 16.032418303077378 1 -1 1
2777 155 5 -0.268 7.679103234070381 6.338381981023726 15.542628279675725 1 -1 1
2788 155 16 0.09 8.127710460667117 7.30116735004704 15.67726475973865 1 -1 1
2790 155 18 0.414 4.956135022420103 4.881372850787294 15.553599791732948 1 -1 1
2778 155 6 -0.645 5.872938258885151 4.901896010806136 15.755306352423741 1 -1 1
2776 155 4 0.15 6.2491481368918125 6.186011002329932 16.054465845684618 1 -1 1
2786 155 14 0.09 6.388636473979982 6.243511494876352 17.13104577302652 1 -1 1
2785 155 13 0.09 5.755169304862475 8.089880039033137 14.961190141698658 1 -1 1
2775 155 3 -0.206 5.264230961057167 7.179492780598862 15.416096403840278 1 -1 1
3093 172 15 0.09 8.101961013769627 4.163149914229244 21.091650203927212 0 2 1
3006 167 18 0.414 7.366938509962536 3.048210089131477 14.280717120909024 1 1 1
2142 119 18 0.414 10.717973485589104 9.346729761946383 21.07567675246637 1 -1 1
2774 155 2 -0.162 4.229718859519631 7.662379116443413 16.369114192133956 1 -1 1
2787 155 15 0.09 7.5814329560466645 6.071140171600533 14.542292909011959 1 -1 1
4307 240 5 -0.268 10.859641829718871 9.018711207413556 15.807285277624405 -2 0 1
2784 155 12 0.09 4.723228305766757 6.724744858036473 14.637976966632667 1 -1 1
4306 240 4 0.15 11.076985542449497 8.601377745626941 14.357173826961311 -2 0 1
3660 204 6 -0.645 11.523510818547313 5.054336903368576 14.64647557686639 2 1 0
2133 119 9 0.09 5.194186757163061 9.21236109973265 20.200576357013677 1 -1 1
2125 119 1 -0.273 6.228796847818499 8.933209650808656 19.889047772317213 1 -1 1
4316 240 14 0.09 10.273706053475053 7.8884428650184075 14.060929665457316 -2 0 1
2131 119 7 0.09 6.141338014694329 8.342463389005218 18.93414376459129 1 -1 1
5250 292 12 0.09 3.671489925937288 13.509625710011592 21.279078745849297 2 -1 -1
3672 204 18 0.414 11.259460984540224 4.451507415914407 15.335118310010303 2 1 0
6075 338 9 0.09 11.032362902781289 3.591419098690439 17.70937680061471 2 1 0
2994 167 6 -0.645 7.496903604256373 2.982267775829022 13.320765201003285 1 1 1
4320 240 18 0.414 12.202755770086803 6.963176625630311 14.291126849397548 -2 0 1
6073 338 7 0.09 10.67073751590402 5.457548746770381 18.032958771819303 2 1 0
2132 119 8 0.09 6.471947454784515 8.1850502270391 20.739406387298384 1 -1 1
4308 240 6 -0.645 12.36012947846602 7.907527085995609 14.44266568576471 -2 0 1
2782 155 10 0.09 4.717547822375401 8.144824982654274 17.147745791844567 1 -1 1
3658 204 4 0.15 11.650164128519805 4.186918928953258 13.531073868734977 2 1 0
2136 119 12 0.09 8.676611087517117 8.663558222705426 20.2705387126431 1 -1 1
5241 292 3 -0.206 3.714911288570737 13.303614369012955 22.38019780435464 2 -1 -1
6067 338 1 -0.273 11.247200709103303 4.566687065764904 18.30783263277242 2 1 0
1482 83 6 -0.645 10.563501481359427 8.167999227315438 22.34430255535958 0 1 1
3095 172 17 0.09 6.3568947550911155 3.8869773408967587 21.187117868501453 0 2 1
6074 338 8 0.09 10.996242944267198 4.3802196732117284 19.38036335376341 2 1 0
3000 167 12 0.09 5.142602121735431 2.757347621677364 14.243065760228104 1 1 1
6093 339 9 0.09 12.229679805086393 13.31430317459387 17.37588903755958 0 1 0
4318 240 16 0.09 10.869375420739654 8.251330828143363 16.568203572608084 -2 0 1
2127 119 3 -0.206 8.707062590687427 9.563529012604892 19.645718181410892 1 -1 1
2137 119 13 0.09 8.826663725010562 9.296243847699493 18.54632738159389 1 -1 1
2996 167 8 0.09 3.2747203167581027 4.7107330171506225 13.92668344955999 1 1 1
2781 155 9 0.09 3.8476763581716824 5.799067099763945 17.449905202614936 1 -1 1
5247 292 9 0.09 7.1581559755225355 12.7249707691674 21.991921172748558 2 -1 -1
2869 160 7 0.09 3.757992545347993 7.539033950950338 12.68159038261217 2 -3 0
3091 172 13 0.09 8.737333787247177 3.0132353020915876 19.238829096923027 0 2 1
2134 119 10 0.09 7.13948309276445 10.673568011884496 20.832513521194254 1 -1 1
5641 314 7 0.09 7.738252006867724 7.61574501662595 12.711610467509383 1 0 1
2126 119 2 -0.162 7.267993914694318 10.06926157086685 19.8925009777325 1 -1 1
5945 331 5 -0.268 3.4725810610035657 12.711211405617759 17.759662455832363 2 0 2
5944 331 4 0.15 4.9634255130142595 12.722593418739613 17.38251413425082 2 0 2
5335 297 7 0.09 2.703863924416958 8.288392106347713 20.657746009938922 1 0 0
5942 331 2 -0.162 6.838573800941272 11.33304438980657 16.209139306921834 2 0 2
2140 119 16 0.09 9.020008979323547 12.0207989889566 18.609493442777826 1 -1 1
4319 240 17 0.09 9.950202464395986 9.609563891466994 15.860685879616916 -2 0 1
3666 204 12 0.09 9.621715715366495 4.806857803042562 12.986009561181879 2 1 0
5946 331 6 -0.645 5.284582473279851 13.775201919443214 16.51150265227377 2 0 2
5958 331 18 0.414 6.22338655731239 13.758263521534918 16.54510686438183 2 0 2
2097 117 9 0.09 3.6945775368080316 15.123519194726427 14.61286102335256 -1 0 0
5952 331 12 0.09 4.849325859616375 11.627935739610145 15.693857435331001 2 0 2
6092 339 8 0.09 12.488992756772797 11.609394494133992 16.855550405574206 0 1 0
5249 292 11 0.09 5.046086632706359 11.586122399193544 22.335108480515988 2 -1 -1
3659 204 5 -0.268 11.309115730772028 2.7631667287621897 13.8974110388434 2 1 0
5950 331 10 0.09 7.556317166688296 11.951472628156177 16.78195602622764 2 0 2
2138 119 14 0.09 9.281320960674698 10.995694483709883 20.946279706220242 1 -1 1
2128 119 4 0.15 9.761918137745205 10.586713297034162 20.048277829997186 1 -1 1
2106 117 18 0.414 5.006802969329518 13.914403018656895 14.156789732738991 -1 0 0
2135 119 11 0.09 7.052868531722959 10.796285904857998 19.060138290446318 1 -1 1
5957 331 17 0.09 3.34094968525814 11.914378557485955 18.506600757242264 2 0 2
5949 331 9 0.09 6.211714412110772 10.974419307793823 14.165268528361246 2 0 2
5947 331 7 0.09 7.375526461332949 12.436500494669179 14.479931705283873 2 0 2
5941 331 1 -0.273 7.098357236790568 11.355457809503992 14.705510394662443 2 0 2
5239 292 1 -0.273 6.262097194681951 13.370181132410844 22.072341479407125 2 -1 -1
6094 339 10 0.09 11.69040029674408 13.366623223407519 14.992417634924058 0 1 0
482 27 14 0.09 7.147353514879646 15.812186795033904 17.2662493041729 -2 0 0
5948 331 8 0.09 8.04600597702511 10.81743394746532 14.521966354095628 2 0 2
2130 119 6 -0.645 10.922443270867134 9.882903168830882 20.30686051248353 1 -1 1
472 27 4 0.15 8.174633501640507 15.694220596067844 16.765216486790425 -2 0 0
2139 119 15 0.09 10.544067637371487 11.246872807045195 18.160865382498347 1 -1 1
5953 331 13 0.09 5.015608193588394 10.466411370516319 17.108416691588072 2 0 2
5246 292 8 0.09 6.0581093025743815 13.545085033509302 20.97823787382311 2 -1 -1
5954 331 14 0.09 5.6606921996641715 12.938930752422332 18.219010358153604 2 0 2
5943 331 3 -0.206 5.368106158715124 11.430163390033126 16.645861147804247 2 0 2
5951 331 11 0.09 7.257621143296199 10.336157820781649 16.436244789054975 2 0 2
2089 117 1 -0.273 2.691749942719231 14.953161884738392 14.174741463549875 -1 0 0
2129 119 5 -0.268 9.984029577613729 11.60922945077853 18.989740134527743 1 -1 1
4315 240 13 0.09 11.68297028444858 10.563288364310173 13.963535145873099 -2 0 1
5252 292 14 0.09 2.833891075109704 11.259469714850091 22.377043425031474 2 -1 -1
5956 331 16 0.09 2.900363476591541 12.451364760055446 16.825345313518497 2 0 2
153 9 9 0.09 9.558468427150217 12.909276587005108 22.36595961215246 0 1 -1
2871 160 9 0.09 3.677720424301959 9.321402024881174 13.16880107185475 2 -3 0
3089 172 11 0.09 8.267397243330295 3.1452697396543154 16.883225551017052 0 2 1
2780 155 8 0.09 3.0450751297382834 5.9145428528027315 15.922038387947662 1 -1 1
486 27 18 0.414 7.627579617002542 14.708654722953732 15.089233182014606 -2 0 0
4305 240 3 -0.206 11.022242145002792 9.885020357732595 13.412591856474105 -2 0 1
4317 240 15 0.09 11.76358187848626 9.646520396031175 16.151817706757733 -2 0 1
483 27 15 0.09 8.838836239058889 14.500100167574736 18.438008998210407 -2 0 0
6045 336 15 0.09 2.8622285890251047 15.044711815368593 19.75500685577907 2 0 1
473 27 5 -0.268 9.163880657680433 15.385477638430087 17.898593426499268 -2 0 0
474 27 6 -0.645 8.114757261267656 14.534837429828807 15.945027332404978 -2 0 0
2141 119 17 0.09 10.642313837442387 12.428157222404353 19.371596017149667 1 -1 1
4314 240 12 0.09 10.015875707944701 10.283682396814934 13.547664846809099 -2 0 1
4913 273 17 0.09 12.162355040654543 15.593319436521293 19.980989364481722 1 0 -2
2094 117 6 -0.645 5.664427805339318 14.032927723427271 13.436483560110974 -1 0 0
484 27 16 0.09 10.228022739473886 15.322960329629568 17.61179637971489 -2 0 0
2034 113 18 0.414 4.0094872721513735 3.3725033391484063 20.60945079333603 0 0 0
6047 336 17 0.09 4.416817158487303 15.615052173335105 20.39037697505876 2 0 1
2783 155 11 0.09 3.5816002441090706 8.45165952772088 15.89466637492242 1 -1 1
2090 117 2 -0.162 2.776329002644729 13.726778096410355 13.350343541850146 -1 0 0
152 9 8 0.09 11.210230614152051 13.296907481777247 21.637221469733635 0 1 -1
2773 155 1 -0.273 3.3111497535263306 6.500974385903861 16.826488750840657 1 -1 1
2989 167 1 -0.273 3.1908660468576437 4.236990307766021 12.893074431089945 1 1 1
3081 172 3 -0.206 7.759909710751756 2.794627008943822 18.939259359050464 0 2 1
6102 339 18 0.414 11.767915624993154 15.664327226701548 14.429423975032938 0 1 0
2025 113 9 0.09 3.8461340558767607 2.7089177020264703 16.808262407573444 0 0 0
5642 314 8 0.09 6.2766608757793305 8.565941791984871 12.624127801881764 1 0 1
4443 247 15 0.09 9.853451697946134 2.639477585548235 21.93996994340233 -1 -1 1
3669 204 15 0.09 10.25331635766742 2.591619654219862 14.155899866793117 2 1 0
1280 72 2 -0.162 7.538117944583312 5.810724406381594 28.152637105531888 0 0 0
1281 72 3 -0.206 7.4406323715635505 7.125655102781687 28.861184269018423 0 0 0
1289 72 11 0.09 6.679223730206379 5.138851159851495 28.37086417625302 0 0 0
1288 72 10 0.09 8.448076372678269 5.309298288821312 28.47311116297061 0 0 0
1479 83 3 -0.206 10.680255710758674 6.422216140186071 24.06445483478536 0 1 1
1488 83 12 0.09 10.266488071759191 5.626380390596296 23.392036938806445 0 1 1
1290 72 12 0.09 8.334807712974158 7.742945842306448 28.716863003981125 0 0 0
1658 93 2 -0.162 11.435227523478536 6.860146080569781 29.71328560016998 1 1 0
1478 83 2 -0.162 12.182890283392107 6.493588242052647 23.90261194139845 0 1 1
5159 287 11 0.09 2.9800755607441363 4.5282796305028565 27.78519365684415 1 1 -1
1291 72 13 0.09 6.5301218679782185 7.712775476383718 28.555511986963754 0 0 0
1665 93 9 0.09 12.30314383512224 8.159461820483749 28.30400544785372 1 1 0
1279 72 1 -0.273 7.648827742604507 6.0019160504535956 26.634100887817333 0 0 0
1480 83 4 0.15 9.94817321103453 7.757779107792699 23.584882502035555 0 1 1
1287 72 9 0.09 8.412936894113042 6.785734277901543 26.48551056800812 0 0 0
5162 287 14 0.09 3.2410324668837154 7.071679391608339 28.202291516603584 1 1 -1
1286 72 8 0.09 6.6428724933494285 6.324364542218998 26.229235153477187 0 0 0
1664 93 8 0.09 10.822049618719312 7.32692555694891 27.66572028938599 1 1 0
2368 132 10 0.09 2.8968098027494196 11.642813274761407 31.915856669604544 0 0 0
1491 83 15 0.09 8.01218951646166 7.396835446365405 24.209157187156546 0 1 1
1295 72 17 0.09 7.284257905840229 8.28421614483512 32.23258496493643 0 0 0
5340 297 12 0.09 2.821967095180917 7.487636164051828 23.119493150927404 1 0 0
1663 93 7 0.09 10.701009718457923 8.693658837238607 28.931910210641334 1 1 0
1657 93 1 -0.273 11.26421909840028 7.860393800095715 28.585039701611453 1 1 0
2958 165 6 -0.645 11.164091088800918 15.486298698313764 28.345953425268732 -1 1 1
1181 66 11 0.09 11.28209212739378 9.124104743050593 31.898505376713533 0 1 -1
1282 72 4 0.15 7.154160813876096 7.097842954118349 30.416479271743906 0 0 0
1292 72 14 0.09 6.0793828026775625 6.739658353050916 30.53698277010857 0 0 0
5344 297 16 0.09 3.8039192656304643 5.695913372013168 24.071823580938645 1 0 0
1666 93 10 0.09 10.491049597218456 6.553839154185379 30.071916155047692 1 1 0
5149 287 1 -0.273 3.507531258322787 3.225469618496791 29.353840193331838 1 1 -1
1667 93 11 0.09 11.833753337630457 7.466796399759003 30.568436988962215 1 1 0
1669 93 13 0.09 11.826665762662149 5.096515892542271 28.572496663976466 1 1 0
786 44 12 0.09 6.167329302640276 8.83845492379433 25.282461966267558 -1 1 0
2963 165 11 0.09 11.933251131330586 12.063017522333078 29.02837027700465 -1 1 1
1490 83 14 0.09 10.081769858450414 8.561881137357616 24.379912173476317 0 1 1
791 44 17 0.09 3.4991005228755054 8.271919229075815 25.613659156931913 -1 1 0
1285 72 7 0.09 7.884776557552023 5.094139006482493 26.045182690932318 0 0 0
1296 72 18 0.414 8.81039272758747 6.20347070320967 30.487521852629484 0 0 0
1659 93 3 -0.206 12.358716466942088 5.786281587717875 29.28099841135403 1 1 0
1283 72 5 -0.268 7.503565506705913 8.361655216724197 31.09476416793105 0 0 0
1510 84 16 0.09 9.408630013213319 2.7114454643472046 27.372827621672002 1 1 1
1483 83 7 0.09 12.36753344509607 4.397005144327769 24.000752490977796 0 1 1
827 46 17 0.09 5.784890895274991 3.0481958270270884 23.033574835841137 0 1 -2
1489 83 13 0.09 10.216180778852621 6.16037455027923 25.097438584032215 0 1 1
5157 287 9 0.09 3.3977334544980495 2.893900109239314 30.366630477555827 1 1 -1
1284 72 6 -0.645 7.969892655752048 6.0965870392411965 30.977225064197658 0 0 0
5163 287 15 0.09 3.1720051856902827 8.04650220025481 30.594296637211453 1 1 -1
3844 214 10 0.09 5.311721881626271 13.701689965224382 28.404292241754998 0 2 -1
1673 93 17 0.09 11.155551598431025 3.62148169584503 30.967262697028488 1 1 0
5161 287 13 0.09 3.908760592497663 5.777151822759903 30.090093375416842 1 1 -1
1661 93 5 -0.268 11.913182777030478 4.384533596827962 31.399318928964338 1 1 0
4444 247 16 0.09 9.683581646129841 2.855475221711041 23.671486482798873 -1 -1 1
5151 287 3 -0.206 2.874824946290348 5.6211483227680255 29.670161394021175 1 1 -1
3845 214 11 0.09 6.078911922676648 15.289532423729842 28.85507536680902 0 2 -1
2965 165 13 0.09 12.480425748705144 12.860695494707434 26.662674338445655 -1 1 1
151 9 7 0.09 10.676852091824268 14.061668998172836 23.071267570981796 0 1 -1
1671 93 15 0.09 11.353110564110418 5.226154266741996 31.853334297821988 1 1 0
2970 165 18 0.414 12.097049804551444 15.674512566720937 28.532402690706583 -1 1 1
5251 292 13 0.09 3.550625989722133 14.28663061325926 22.928067539616908 2 -1 -1
1493 83 17 0.09 8.360338091600472 6.747423042593294 22.503850461085847 0 1 1
5150 287 2 -0.162 2.715730285030543 4.386476735248213 28.76749772372788 1 1 -1
2969 165 17 0.09 9.443234755520105 14.741642865035109 26.4060688513083 -1 1 1
5333 297 5 -0.268 2.8449194872114667 5.149579601070979 24.090153264393997 1 0 0
815 46 5 -0.268 6.416882133727301 3.2356695826492508 23.902670945304315 0 1 -2
1511 84 17 0.09 11.014552148614527 2.9995773068399325 28.329946248145852 1 1 1
1172 66 2 -0.162 12.239868974164793 9.60576693440123 32.0945841843812 0 1 -1
4445 247 17 0.09 11.290276939792 2.812758948390093 22.94101400397983 -1 -1 1
1486 83 10 0.09 12.531444061288655 6.414429279565427 22.797733381962715 0 1 1
3842 214 8 0.09 7.4315672048487285 15.316511478113947 26.73048421853855 0 2 -1
5156 287 8 0.09 4.596949328536217 3.307296527344835 29.099201855535522 1 1 -1
3840 214 6 -0.645 6.554683243385388 12.025030007745636 30.37875662240835 0 2 -1
1494 83 18 0.414 11.456553102136725 8.467012755561667 22.693080045607534 0 1 1
2955 165 3 -0.206 12.442508921129491 13.515567686101894 27.57766319873176 -1 1 1
5345 297 17 0.09 2.8538918903413144 4.4629977334316795 24.918711834803883 1 0 0
777 44 3 -0.206 5.893929488714093 9.942847645702104 25.209994860656096 -1 1 0
1293 72 15 0.09 8.562609360647429 8.681191642823869 30.96207737167171 0 0 0
787 44 13 0.09 5.508038074218739 10.222065518474768 24.193378446742187 -1 1 0
784 44 10 0.09 7.850455927390902 10.636431521557995 24.6991596229587 -1 1 0
783 44 9 0.09 8.494429311476996 9.531970362921658 26.84424433370427 -1 1 0
779 44 5 -0.268 3.4232264373603587 9.375279745211333 25.568765133605883 -1 1 0
789 44 15 0.09 3.299989168146571 9.645184837391149 24.523347868459823 -1 1 0
792 44 18 0.414 5.182731702481737 11.936621207576092 26.597037851670716 -1 1 0
1294 72 16 0.09 6.922999503465506 9.111985556816867 30.625349006705587 0 0 0
2966 165 14 0.09 10.395852296808659 13.503700961120499 28.282956501877287 -1 1 1
3841 214 7 0.09 5.658468800975918 15.108586207406345 26.360403526415134 0 2 -1
1672 93 16 0.09 12.321628169613236 3.954252833715204 32.34336085590982 1 1 0
5240 292 2 -0.162 5.062581038291594 12.671914345936452 22.70734841011053 2 -1 -1
3835 214 1 -0.273 6.53619901661831 14.582042015313974 26.846848930406654 0 2 -1
5256 292 18 0.414 3.1452591704479294 11.926324496432214 24.493014934696312 2 -1 -1