LAMMPS data file via write_data, version 29 Aug 2024, timestep = 1000000, units = real

7168 atoms
14 atom types
7168 bonds
14 bond types
13312 angles
26 angle types
21504 dihedrals
42 dihedral types
4096 impropers
8 improper types

1.477629454151554 43.522370545831635 xlo xhi
1.477629454151554 43.522370545831635 ylo yhi
1.477629454151554 43.522370545831635 zlo zhi

Masses

1 12.011
2 12.011
3 15.999
4 12.011
5 12.011
6 15.999
7 1.008
8 1.008
9 1.008
10 1.008
11 1.008
12 1.008
13 1.008
14 1.008

Pair Coeffs # lj/charmmfsw/coul/long

1 0.055999 3.58141 0.01 3.38542
2 0.055999 3.58141 0.01 3.38542
3 0.1 2.93997 0.1 2.93997
4 0.055999 3.58141 0.01 3.38542
5 0.055999 3.58141 0.01 3.38542
6 0.1 2.93997 0.1 2.93997
7 0.035 2.38761 0.035 2.38761
8 0.035 2.38761 0.035 2.38761
9 0.035 2.38761 0.035 2.38761
10 0.035 2.38761 0.035 2.38761
11 0.035 2.38761 0.035 2.38761
12 0.035 2.38761 0.035 2.38761
13 0.035 2.38761 0.035 2.38761
14 0.035 2.38761 0.035 2.38761

Bond Coeffs # harmonic

1 222.5 1.53
2 360 1.415
3 360 1.415
4 222.5 1.53
5 360 1.415
6 309 1.111
7 309 1.111
8 309 1.111
9 309 1.111
10 309 1.111
11 309 1.111
12 309 1.111
13 309 1.111
14 360 1.415

Angle Coeffs # charmm

1 45 111.5 0 0
2 95 109.7 0 0
3 45 111.5 0 0
4 45 111.5 0 0
5 26.5 110.1 22.53 2.179
6 26.5 110.1 22.53 2.179
7 26.5 110.1 22.53 2.179
8 26.5 110.1 22.53 2.179
9 45 109.5 0 0
10 45 109.5 0 0
11 26.5 110.1 22.53 2.179
12 26.5 110.1 22.53 2.179
13 26.5 110.1 22.53 2.179
14 35.5 109 5.4 1.802
15 35.5 109 5.4 1.802
16 45 111.5 0 0
17 45 109.5 0 0
18 35.5 109 5.4 1.802
19 45 109.5 0 0
20 45 109.5 0 0
21 26.5 110.1 22.53 2.179
22 45 109.5 0 0
23 35.5 109 5.4 1.802
24 45 109.5 0 0
25 95 109.7 0 0
26 45 109.5 0 0

Dihedral Coeffs # charmmfsw

1 0.53 1 180 1
2 0.53 1 180 1
3 0.195 3 0 1
4 0.195 3 0 1
5 0.195 3 0 1
6 0.195 3 0 0
7 0.53 1 180 0
8 0.195 3 0 1
9 0.22 3 0 1
10 0.22 3 0 1
11 0.195 3 0 1
12 0.22 3 0 1
13 0.195 3 0 1
14 0.195 3 0 1
15 0.22 3 0 1
16 0.195 3 0 1
17 0.195 3 0 1
18 0.195 3 0 1
19 0.22 3 0 1
20 0.22 3 0 1
21 0.195 3 0 1
22 0.195 3 0 1
23 0.53 1 180 0
24 0.195 3 0 1
25 0.22 3 0 1
26 0.22 3 0 1
27 0.195 3 0 1
28 0.195 3 0 1
29 0.195 3 0 1
30 0.195 3 0 1
31 0.68 2 0 0
32 0.21 3 180 0
33 0.15 4 0 0
34 0.68 2 0 0
35 0.21 3 180 0
36 0.15 4 0 0
37 0.68 2 0 0
38 0.21 3 180 0
39 0.15 4 0 0
40 0.68 2 0 0
41 0.21 3 180 0
42 0.15 4 0 0

Improper Coeffs # harmonic

1 0 0
2 0 0
3 0 0
4 0 0
5 0 0
6 0 0
7 0 0
8 0 0

Atoms # full

1898 136 8 0.09 3.028216179250241 4.234884401878896 5.856717157793012 0 1 1
4365 312 11 0.09 6.003006922923302 5.200858107229193 3.7649730489386646 1 0 3
6066 434 4 0.02 2.5173453472369407 8.772118622611693 4.27468254921677 2 2 -1
2079 149 7 0.09 9.638758988843078 10.241471169316537 3.918451682053678 1 -1 -1
2491 178 13 0.09 6.487849784262141 7.770631166362349 2.735849618994182 0 0 0
5172 370 6 -0.4 11.260366677773067 4.296889255491956 2.070903139875567 1 2 1
5180 370 14 0.09 9.634601968683816 5.434144361520718 2.858215544433322 1 2 1
4359 312 5 0.02 6.370686131615343 3.4914236384171535 2.672237959635929 1 0 3
2483 178 5 0.02 5.658693397117299 7.7102453921369385 1.8830037507557622 0 0 0
4357 312 3 -0.4 7.7418726547342205 4.494306362108755 4.435539713023168 1 0 3
1747 125 11 0.09 1.7178556011843222 6.54876370426475 2.768180238446961 0 1 -1
3683 264 1 0.02 4.276381791441171 11.554125765428719 6.438864237588032 0 2 2
4364 312 10 0.09 8.142256686953331 2.5846614266116044 5.192094456648844 1 0 3
6073 434 11 0.09 2.0807730444224406 8.574882437455166 3.2463725173197133 2 2 -1
2081 149 9 0.09 7.274776342065438 10.45836818482561 4.656948457485613 1 -1 -1
5170 370 4 0.02 11.348084258778545 6.648019751106637 2.156855118246202 1 2 1
1893 136 3 -0.4 3.139555759439715 1.8071152108167392 4.6823651889479 0 1 1
3691 264 9 0.09 3.270736873456415 11.878972524486187 4.5689955784256 0 2 2
4366 312 12 0.09 5.850559721165499 3.623467079152225 4.81710082173148 1 0 3
1740 125 4 0.02 1.6806904971516863 5.925067080790374 1.7933921514344118 0 1 -1
5177 370 11 0.09 10.931262562702472 7.627640612169729 2.481664348592539 1 2 1
6065 434 3 -0.4 2.9206563940054453 7.519235093509903 4.767973068439291 2 2 -1
2486 178 8 0.09 6.749779040655633 9.976168162245722 2.2437790356459857 0 0 0
2085 149 13 0.09 8.463533375478608 6.902081685449646 3.8413808256644715 1 -1 -1
2492 178 14 0.09 5.049624026883151 6.803031738394411 2.217525456259939 0 0 0
1897 136 7 0.09 2.0479545255051566 5.133521793633067 4.551584352688695 0 1 1
2078 149 6 -0.4 9.818163234654858 8.362895572989874 4.499851649943022 1 -1 -1
4363 312 9 0.09 9.547169325924429 3.68799767113283 4.547409463489769 1 0 3
4367 312 13 0.09 6.742671288409168 4.172195130965443 1.8894373542384364 1 0 3
2076 149 4 0.02 8.016215510019132 7.490099596183448 5.8824930140399205 1 -1 -1
1891 136 1 0.02 2.310526811245465 4.121025943946512 5.064263232619334 0 1 1
2075 149 3 -0.4 7.193474002787545 8.5249001554818 5.41334276967473 1 -1 -1
4355 312 1 0.02 8.444081711737986 2.5217615668595537 3.0721733910183593 1 0 3
1892 136 2 0.02 2.775764110053486 3.044546462620808 4.099802961343368 0 1 1
2080 149 8 0.09 8.836785140476884 9.006691976660887 2.9046405123542502 1 -1 -1
6074 434 12 0.09 3.5145628428210633 9.317743944961062 4.224636264361827 2 2 -1
5171 370 5 0.02 10.402207535729545 5.461587010137999 2.0136781112317896 1 2 1
2073 149 1 0.02 9.038499927079403 9.365717296721755 3.9070332692397955 1 -1 -1
6064 434 2 0.02 3.16083597714564 7.533210562853269 6.210150529795119 2 2 -1
2083 149 11 0.09 7.3255118080551345 6.529848302073766 5.960437723049541 1 -1 -1
4356 312 2 0.02 8.450314982632976 3.3014405091727497 4.416591409501612 1 0 3
4358 312 4 0.02 6.414830065375592 4.212890981661042 3.9869453337272005 1 0 3
2082 149 10 0.09 8.48486686632074 9.927863825757893 5.895457095379317 1 -1 -1
4360 312 6 -0.4 7.06344347804987 2.261228630141213 2.7973738900671705 1 0 3
2074 149 2 0.02 7.955408090986729 9.648366249263793 5.018211992023922 1 -1 -1
4362 312 8 0.09 8.832733546572133 3.0888249023700114 2.1776058259795423 1 0 3
1899 136 9 0.09 3.6578470956170257 3.3411429290888632 3.5714408170462137 0 1 1
3689 264 7 0.09 4.7565884212128715 10.58439938284325 6.28070441851504 0 2 2
6071 434 9 0.09 3.4735648855287766 6.525587843129729 6.506533963740865 2 2 -1
2077 149 5 0.02 9.005324888394004 7.2245558295243 4.740502971308346 1 -1 -1
2086 149 14 0.09 9.627081699034266 6.4446532826961125 5.118704905877866 1 -1 -1
4368 312 14 0.09 5.2943406942315 3.160407430114227 2.407863791180629 1 0 3
3160 226 10 0.09 11.216170228826934 1.7639912049509716 1.9025370283873735 0 1 2
795 57 11 0.09 10.36232732815985 2.6686469404759254 6.182986624763452 0 1 -1
2484 178 6 -0.4 5.014311493874773 8.974424798684387 1.787595533967632 0 0 0
4361 312 7 0.09 9.010725610431233 1.5452271859459887 3.2457708807198262 1 0 3
6072 434 10 0.09 4.130909739356163 8.071400982718984 6.414139865959927 2 2 -1
1900 136 10 0.09 1.9226515485316813 2.7989618301270767 3.494574492345278 0 1 1
1739 125 3 -0.4 2.7540848162210136 4.991294040299085 1.85622438877204 0 1 -1
6068 434 6 -0.4 1.824773383701083 9.502478490187077 6.508169220417996 2 2 -1
6355 454 13 0.09 10.030611523080935 11.953613198221989 5.188969162020143 -1 0 0
3692 264 10 0.09 5.130615800481579 11.942568433554495 4.502353494854816 0 2 2
790 57 6 -0.4 9.609271086841623 4.453410290634281 8.931901293584428 0 1 -1
792 57 8 0.09 7.746625002898805 3.707212271913709 9.077639460663331 0 1 -1
3707 265 11 0.09 10.602076753447752 10.965124918203376 8.132250703148593 -1 0 0
162 12 8 0.09 5.428348083601858 2.3861799468584497 8.47328306178436 -1 -2 1
6265 448 7 0.09 5.972280036832064 5.638291936027714 7.706028779936883 0 2 1
3704 265 8 0.09 10.448063034894616 8.563715944824672 11.579157148417115 -1 0 0
6264 448 6 -0.4 4.685943126927138 6.3851699067781835 9.245252553779846 0 2 1
6069 434 7 0.09 2.3855782226099524 8.116507351866943 8.118623978665699 2 2 -1
3690 264 8 0.09 3.247979515482805 11.343416134650226 6.888997554931304 0 2 2
6259 448 1 0.02 5.819934538298772 6.4748083584915355 8.389919683164699 0 2 1
796 57 12 0.09 11.458444991319787 2.6006311571647864 7.657847460677099 0 1 -1
160 12 6 -0.4 3.735970022131948 2.0732297243830304 9.721983932340427 -1 -2 1
791 57 7 0.09 8.711770246003915 3.570146301851549 10.5081765144342 0 1 -1
798 57 14 0.09 10.672451207213188 4.985257173259132 7.208427329695498 0 1 -1
787 57 3 -0.4 9.514756632471949 1.8001320481915732 7.737636592355627 0 1 -1
158 12 4 0.02 5.343479257460599 2.12368022277803 11.567396823182188 -1 -2 1
168 12 14 0.09 3.452395887649525 3.3623622837706133 11.21470677194766 -1 -2 1
797 57 13 0.09 8.901520214855172 4.431575421937136 7.040177540868909 0 1 -1
3700 265 4 0.02 11.364215804666962 10.20245610107589 8.223100043991076 -1 0 0
6271 448 13 0.09 4.217426511429876 8.383243016552061 9.35230188111964 0 2 1
167 12 13 0.09 4.862678477403731 3.7751144847015117 10.036375298766776 -1 -2 1
3697 265 1 0.02 10.932525601243949 8.674432027041899 10.533672732922915 -1 0 0
5472 391 12 0.09 11.738770131143031 2.788093868806939 11.136839228451805 2 -2 3
274 20 8 0.09 3.3496476697538267 9.984700244305303 11.070631455884177 1 1 0
155 12 1 0.02 4.749607972213918 1.5564951111761947 8.889262078747418 -1 -2 1
6262 448 4 0.02 5.755176067232703 7.769628495279132 10.845917182689739 0 2 1
3703 265 7 0.09 11.740985318829924 7.894903184329058 10.479351670029555 -1 0 0
6263 448 5 0.02 4.458850619940998 7.576570540591746 9.99094378488655 0 2 1
788 57 4 0.02 10.369601347155255 2.729681281396818 7.265499075104888 0 1 -1
268 20 2 0.02 1.8806935668736566 10.93721794009032 9.836573880497864 1 1 0
2416 173 8 0.09 7.1264505400134075 11.691379203512142 10.3513556692528 -1 0 0
5470 391 10 0.09 11.861473151293215 5.226784056171195 11.972671843297912 2 -2 3
3706 265 10 0.09 9.963752396016464 7.3289246574744995 9.204483734304972 -1 0 0
786 57 2 0.02 9.323485472433818 2.072716797844545 9.106120686605312 0 1 -1
6260 448 2 0.02 6.965408016006062 6.5526610858795635 9.30734182267156 0 2 1
3705 265 9 0.09 9.067120842362062 8.884885530877845 9.390435131738812 -1 0 0
6269 448 11 0.09 5.635330771074927 8.705637683306296 11.410452890086615 0 2 1
159 12 5 0.02 4.3258430179277845 2.9364328104723154 10.665738511842305 -1 -2 1
6261 448 3 -0.4 6.883031112432991 7.728217716560241 10.052123382746124 0 2 1
3698 265 2 0.02 10.12804997007558 8.453727402763402 9.292163073189878 -1 0 0
6267 448 9 0.09 7.952575513012021 6.510720095627882 8.823524495684879 0 2 1
6270 448 12 0.09 5.792319040561944 6.906125660492766 11.536922785928738 0 2 1
3699 265 3 -0.4 10.813689056660081 8.901973418888966 8.070057290429094 -1 0 0
2084 149 12 0.09 8.412638154769557 7.81742907926167 6.838581068127712 1 -1 -1
6268 448 10 0.09 6.869108152776065 5.804177580646171 10.046995352758753 0 2 1
6272 448 14 0.09 3.565288078328158 7.381606663959781 10.65789990193021 0 2 1
6063 434 1 0.02 2.0763661700243556 8.183473405171181 7.0391355711000605 2 2 -1
785 57 1 0.02 8.764397942743425 3.469054982098834 9.453499089891118 0 1 -1
6266 448 8 0.09 5.775965079639857 7.3642074487357725 7.6895724471955536 0 2 1
267 20 1 0.02 3.2751552062131752 10.77491443835646 10.344701825712985 1 1 0
789 57 5 0.02 9.885369150399255 4.255635862037744 7.561732580807337 0 1 -1
273 20 7 0.09 3.842532202696959 10.69422537465644 9.37208785682033 1 1 0
3702 265 6 -0.4 11.445058336454137 9.965618496199514 10.63465085000185 -1 0 0
2421 173 13 0.09 9.304124720681312 11.352675754381913 10.962052475380183 -1 0 0
1730 124 8 0.09 1.7783378313863074 1.830354911258099 11.487517237223468 0 0 1
1903 136 13 0.09 2.106706756322189 2.702706082814424 7.346875816908938 0 1 1
276 20 10 0.09 1.9612441341461397 11.732532639983644 9.08916280869228 1 1 0
794 57 10 0.09 10.248309668123426 1.9157200123789526 9.6590455677134 0 1 -1
275 20 9 0.09 1.6201370950566585 10.059470623294102 9.171990873086395 1 1 0
157 12 3 -0.4 6.388723937797716 1.5313483103490093 10.837594214366511 -1 -2 1
279 20 13 0.09 2.8653858626996906 11.223735276148581 12.681254004121936 1 1 0
6672 477 8 0.09 5.98154261335786 10.281543289021378 13.170618678531136 2 0 1
6671 477 7 0.09 5.861801283109795 11.177946428789385 14.666660779741132 2 0 1
488 35 12 0.09 8.013927687718274 3.6252456952252006 15.996808678385035 1 1 0
6677 477 13 0.09 7.154879652538292 8.09258750985871 13.410892388600079 2 0 1
6667 477 3 -0.4 4.470705242204762 8.365241474123403 13.85414311989887 2 0 1
6675 477 11 0.09 5.3614481120865225 6.462677159037943 14.041541698835308 2 0 1
542 39 10 0.09 11.035831840372605 3.9172487133969347 16.47043799323552 -1 -1 1
91 7 7 0.09 10.025898020426325 9.96312414610947 13.938377877431314 -2 0 1
94 7 10 0.09 11.584590900397805 10.817094003027316 15.543625412420202 -2 0 1
87 7 3 -0.4 11.297200058553225 9.357007307743606 17.02486100873948 -2 0 1
6668 477 4 0.02 5.334989028818766 7.472457905482852 14.485479368207901 2 0 1
6673 477 9 0.09 3.6950358541524513 10.334192177384827 14.305889943141327 2 0 1
479 35 3 -0.4 7.862311066401856 3.811261099859933 13.851059367193107 1 1 0
97 7 13 0.09 11.06200428502965 7.265982349480759 15.850913095078369 -2 0 1
86 7 2 0.02 10.772081891281934 10.145670310568814 15.978732098643091 -2 0 1
92 7 8 0.09 9.565824159257913 8.547588552363624 15.051196629308553 -2 0 1
2996 214 14 0.09 2.7705666930324124 3.621081216862726 15.853528819992789 1 -1 1
544 39 12 0.09 9.653287988107285 1.9357480389411057 16.755770409221775 -1 -1 1
6670 477 6 -0.4 6.8021050528957145 9.421559206564432 14.951887182529756 2 0 1
487 35 11 0.09 6.435894701581469 3.6423810446909477 15.221206589292475 1 1 0
6665 477 1 0.02 5.843930739857277 10.143705766592115 14.239704100617937 2 0 1
6678 477 14 0.09 7.308830855510669 7.357146673301586 15.202104987605669 2 0 1
480 35 4 0.02 7.4256104543177965 3.289284903603633 15.127588977846168 1 1 0
486 35 10 0.09 9.882003944958509 3.4605775158193604 14.200723537849111 1 1 0
90 7 6 -0.4 11.453586698945688 8.51349108449702 14.309048015926942 -2 0 1
6674 477 10 0.09 4.314300558213262 9.431858734072346 15.693631481957265 2 0 1
2795 200 9 0.09 1.710756076086197 8.718286544275625 13.164700233857403 -1 -1 1
2988 214 6 -0.4 4.35249698740257 4.511097144589211 16.8746955668134 1 -1 1
1735 124 13 0.09 1.97837850675123 4.140987502477719 13.054491583628899 0 0 1
165 12 11 0.09 5.745983059467119 2.755768851062975 12.449040869468233 -1 -2 1
6676 477 12 0.09 5.060641631362451 7.242395782979104 15.589926364288834 2 0 1
484 35 8 0.09 8.315563362450293 1.5202553146147642 12.376968130656119 1 1 0
481 35 5 0.02 7.38390176308625 1.7629396187439994 14.98378739576512 1 1 0
6669 477 5 0.02 6.778176592816725 8.037987659802639 14.491888672185503 2 0 1
85 7 1 0.02 10.375047925693936 9.293559617729189 14.749865946760075 -2 0 1
2419 173 11 0.09 9.547654587498595 11.868138766095056 13.491939315167032 -1 0 0
6666 477 2 0.02 4.474882419540991 9.589444376116447 14.632823057209247 2 0 1
93 7 9 0.09 9.997004801986895 10.76928926596671 16.24487341573052 -2 0 1
485 35 9 0.09 9.57090208737987 3.898428139242101 12.537931102526693 1 1 0
477 35 1 0.02 9.03320086442983 1.8539542952846262 13.229733717253085 1 1 0
478 35 2 0.02 9.12705577662155 3.2981760944634404 13.41088957290924 1 1 0
2995 214 13 0.09 2.266979718208394 4.943016462428941 17.14841519459681 1 -1 1
2987 214 5 0.02 2.9723421858574444 4.02183526401413 16.883668102533736 1 -1 1
89 7 5 0.02 11.921372487129068 7.773860801266359 15.39546212211745 -2 0 1
2797 200 11 0.09 1.5452476421509314 6.781895048997292 14.713537483173683 -1 -1 1
489 35 13 0.09 6.602027512701365 1.8164368168701255 14.184000560703552 1 1 0
2986 214 4 0.02 2.5421086144749383 2.9715191146149498 17.99126188675571 1 -1 1
3377 242 3 -0.4 8.136623767674525 6.575875103912529 21.083821767693394 0 1 -1
3375 242 1 0.02 6.782327459424537 7.990237457911675 19.70826335245924 0 1 -1
2994 214 12 0.09 3.0924257627146927 1.9996768572581907 17.798592854784495 1 -1 1
2984 214 2 0.02 4.235031324132095 4.061453031925101 19.201064828523 1 -1 1
3383 242 9 0.09 8.744304381989739 7.267048719990574 19.279442923209796 0 1 -1
3378 242 4 0.02 7.033055929602179 6.019109596537214 21.72274870717509 0 1 -1
1134 81 14 0.09 7.614660119767253 2.9500683424502903 21.899581534879115 2 1 0
1389 100 3 -0.4 10.913873138399103 10.332664610139062 22.033970731829903 0 0 0
546 39 14 0.09 7.846721012689881 2.4685154038503905 18.520040355299052 -1 -1 1
1125 81 5 0.02 7.341503993491455 1.9105304979719533 22.208876866532798 2 1 0
545 39 13 0.09 9.248825533716596 2.514603332676519 19.64902749459754 -1 -1 1
1392 100 6 -0.4 9.254303873715461 10.869208689714357 19.727903722360594 0 0 0
539 39 7 0.09 10.60958393418828 5.578438860756036 18.51768465854737 -1 -1 1
1387 100 1 0.02 10.59952009886407 11.272734516433538 19.70360972007839 0 0 0
535 39 3 -0.4 11.344573603098102 2.3899200082531724 17.852797958204647 -1 -1 1
538 39 6 -0.4 9.10339453341278 4.154171848366861 18.334645658832876 -1 -1 1
1390 100 4 0.02 9.519647489546054 10.215068629156665 22.04973298108979 0 0 0
3380 242 6 -0.4 5.605869269555847 7.580443615099969 20.476777829756415 0 1 -1
2989 214 7 0.09 5.583791116853526 5.61958662850974 18.31431808120563 1 -1 1
3381 242 7 0.09 6.465404865933127 8.318290682436128 18.703949045001806 0 1 -1
3379 242 5 0.02 5.940970226140062 7.012837853280969 21.75784523551887 0 1 -1
2985 214 3 -0.4 2.968647493483574 3.542727660329812 19.217991903181698 1 -1 1
4803 344 1 0.02 5.170964493301469 11.407049202302241 18.68537234372144 1 0 0
2992 214 10 0.09 5.034859755836611 3.2811928609759766 19.05693183133226 1 -1 1
3376 242 2 0.02 7.820519787077426 6.862954557843027 19.72839979669264 0 1 -1
540 39 8 0.09 10.69803052575597 4.0942420419031755 19.604481384206842 -1 -1 1
3388 242 14 0.09 5.021469143677381 6.625069730630336 22.275219698033393 0 1 -1
2991 214 9 0.09 4.403818329107955 4.55239236272769 20.225283760441382 1 -1 1
1225 88 7 0.09 11.554199396941286 7.278988236652191 21.65069368574639 0 0 0
1398 100 12 0.09 9.165140905408308 9.200215228426366 22.059134302784816 0 0 0
1132 81 12 0.09 5.26094580847877 2.6570413600881744 22.323028249365443 2 1 0
2990 214 8 0.09 3.9045873691531767 6.056180786570296 18.209083015714032 1 -1 1
3387 242 13 0.09 6.179386806160465 7.841991998382423 22.430323158066567 0 1 -1
1396 100 10 0.09 11.097318909371495 9.264004123978385 20.38607228985882 0 0 0
1400 100 14 0.09 7.751883544421295 11.000778042848994 21.079011262166453 0 0 0
3384 242 10 0.09 7.557213659557914 5.925581526124176 19.177513588374847 0 1 -1
1388 100 2 0.02 11.303775534056868 10.282660816780234 20.674269116993443 0 0 0
4812 344 10 0.09 2.9460856147637413 11.095603878950502 18.70201002508365 1 0 0
534 39 2 0.02 11.38102716095417 3.7792645559487656 17.53220397847916 -1 -1 1
3386 242 12 0.09 6.932097063481653 5.066819447243319 21.138636630510366 0 1 -1
1064 76 14 0.09 4.755859572345164 10.631676497823225 22.206624411869562 0 1 0
537 39 5 0.02 8.900867032859315 2.7366448371723466 18.663360763607542 -1 -1 1
1391 100 5 0.02 8.806191514494074 11.11718765920528 21.05221079033971 0 0 0
1393 100 7 0.09 11.011475481712194 11.176558245698388 18.613763508639295 0 0 0
536 39 4 0.02 9.98559092830215 1.939409343835579 17.773531908775333 -1 -1 1
1062 76 12 0.09 2.7886838995814576 9.190912959217883 22.441666569888906 0 1 0
2983 214 1 0.02 4.532338041823774 5.137707571377815 18.117407077168437 1 -1 1
3382 242 8 0.09 7.185617084902181 8.867879706638789 20.179153554255166 0 1 -1
533 39 1 0.02 10.427925252989963 4.47565249880952 18.548427301808314 -1 -1 1
4809 344 7 0.09 5.15876765870735 10.783494636223184 17.79809530398228 1 0 0
4310 308 12 0.09 11.26027488863119 1.7848138516667595 20.75633717016427 2 0 -1
4811 344 9 0.09 3.9704911693206575 10.064634094644164 19.79372326965328 1 0 0
4804 344 2 0.02 3.904403133169307 11.106982213978505 19.427655659276557 1 0 0
4810 344 8 0.09 6.025500706295939 11.132820184063341 19.303845764288617 1 0 0
1061 76 11 0.09 2.206713353103904 10.766148901602646 22.206746891257712 0 1 0
1232 88 14 0.09 11.594963286606417 4.9499256436628185 22.362307115584787 0 0 0
4396 314 14 0.09 9.481633122775603 5.406346219308839 24.02966087260925 2 3 0
1059 76 9 0.09 2.1614336341927283 9.479417626325043 26.161577205066585 0 1 0
4391 314 9 0.09 7.815807909279914 9.246633780194148 26.65460121357559 2 3 0
4849 347 5 0.02 3.9811278872761497 4.756036788530129 27.29388408914919 1 1 0
6643 475 7 0.09 8.361700927197237 3.3721604604348405 24.722192654011153 1 2 -1
4392 314 10 0.09 7.318640941138256 8.688703015187107 24.954308430469943 2 3 0
4851 347 7 0.09 4.07362466553854 6.690955357132103 24.704443287983338 1 1 0
4386 314 4 0.02 9.647742192101292 7.579160284764195 24.42715795586514 2 3 0
4848 347 4 0.02 2.791781847699762 3.86073246354697 26.912280664631588 1 1 0
1397 100 11 0.09 9.210955048438322 10.589672359755095 23.099287754611524 0 0 0
4383 314 1 0.02 7.777284102570846 7.044217832299962 26.421975709152253 2 3 0
4389 314 7 0.09 6.717806300422432 7.008479865541943 26.84415350910057 2 3 0
4850 347 6 -0.4 4.073378893500259 6.045442190772298 26.621674024379512 1 1 0
4388 314 6 -0.4 8.00851482377655 6.035985098678783 25.444824820126637 2 3 0
4846 347 2 0.02 2.790294248630604 4.888312738417815 24.8258429783035 1 1 0
6644 475 8 0.09 8.93330255553657 1.7808127281215222 25.38495973062753 1 2 -1
2250 161 10 0.09 8.73709349007495 11.7120996313671 26.130493438637657 0 0 1
2247 161 7 0.09 6.323215880587235 11.59070828260947 25.495034255747964 0 0 1
4390 314 8 0.09 8.52470274794025 6.903770088894566 27.243600916930266 2 3 0
4385 314 3 -0.4 9.368610293150962 8.551807358129569 25.42543219149889 2 3 0
4855 347 11 0.09 2.7084125812967943 2.86663010777108 27.34609861694852 1 1 0
6646 475 10 0.09 8.69014227222726 4.410772375777036 27.092051842355424 1 2 -1
4852 347 8 0.09 4.945515225995514 5.265829195236584 24.945741962898676 1 1 0
1051 76 1 0.02 4.107332260715656 9.774352728201428 25.333527366172166 0 1 0
1052 76 2 0.02 2.6552258216192373 9.342016809145179 25.18659987282665 0 1 0
1054 76 4 0.02 2.7394210464775446 10.179370148128461 22.92362743479299 0 1 0
2248 161 8 0.09 7.407230355818997 10.91474358503106 24.263944527053763 0 0 1
6645 475 9 0.09 7.3639877302416785 3.2821217492638617 26.92758777872615 1 2 -1
4854 347 10 0.09 1.800324656302973 5.395421583406549 24.89207874474178 1 1 0
1058 76 8 0.09 4.2205658203443726 10.759554403195741 25.824535143891325 0 1 0
6638 475 2 0.02 8.462686531909867 3.3563042484370422 26.89653211903037 1 2 -1
1063 76 13 0.09 4.259235007910696 11.773202366434113 23.54988844874138 0 1 0
4853 347 9 0.09 2.881014190865491 4.548236109734145 23.757994427248025 1 1 0
1131 81 11 0.09 6.063148458666113 2.28346397859862 23.894457967673752 2 1 0
1056 76 6 -0.4 4.849641456552922 9.773592810455654 24.06079910569279 0 1 0
1057 76 7 0.09 4.643321204597329 8.998341414481839 25.98582111914472 0 1 0
4393 314 11 0.09 10.748713342206797 7.720957420686933 24.30189673278796 2 3 0
4384 314 2 0.02 7.9979555686282895 8.443887639760458 25.810171555771646 2 3 0
1124 81 4 0.02 5.982491332439658 1.9914686371071326 22.854393169303528 2 1 0
1055 76 5 0.02 4.2264751233244935 10.726081278879471 23.162799579688393 0 1 0
3385 242 11 0.09 7.254655081936861 5.765902435969905 22.72808108857977 0 1 -1
4395 314 13 0.09 9.965573657779139 5.93573140397233 25.644516543741208 2 3 0
4856 347 12 0.09 1.823371978686097 4.323811771916916 27.184964366065355 1 1 0
4387 314 5 0.02 9.295001388046517 6.132470195121102 24.806376730097796 2 3 0
4394 314 12 0.09 9.02599710832185 7.76918032438257 23.57354197109161 2 3 0
4845 347 1 0.02 3.9934048861839067 5.720605461368862 25.253533027122224 1 1 0
6637 475 1 0.02 9.051703297438491 2.919631634702007 25.54551541994043 1 2 -1
6641 475 5 0.02 11.093522701385549 2.665870357598128 26.64915988323391 1 2 -1
1053 76 3 -0.4 1.9661434182762854 10.109601376988442 24.162895456219456 0 1 0
6642 475 6 -0.4 10.427796547231843 3.27787372905022 25.52880938222773 1 2 -1
6649 475 13 0.09 11.040000442692106 1.5677458409681528 26.508164387022322 1 2 -1
4847 347 3 -0.4 2.6732479660371182 3.690448427259057 25.505933262157328 1 1 0
1060 76 10 0.09 2.599427462583685 8.258049218216545 24.900365148886596 0 1 0
4308 308 10 0.09 11.276809244250348 2.1205205584872076 23.022619547246837 2 0 -1
2786 199 14 0.09 11.073899363969195 6.687619222516763 27.52548084277831 -1 1 1
4857 347 13 0.09 4.929640251952209 4.222925352736372 26.95680258776454 1 1 0
3665 262 11 0.09 11.867924061496126 9.964171398509079 24.571638616091363 1 1 0
2241 161 1 0.02 7.139197578854414 11.882182886732163 24.76330283868095 0 0 1
1120 80 14 0.09 2.7067228117333406 11.761507481074979 27.833337026922976 1 -2 2
1705 122 11 0.09 3.7789234614862504 4.89399332555586 31.047047882312626 0 2 0
6647 475 11 0.09 11.1199830418857 2.7746078262975997 28.914049893174735 1 2 -1
4637 332 3 -0.4 9.162553268726352 6.089545072349631 32.2593732359977 -1 -1 1
286 21 6 -0.4 9.352589242345285 10.462522309800093 28.625019542369746 1 -1 0
5230 374 8 0.09 5.324593130938413 2.4349189560456495 28.44732271833841 0 0 0
4897 350 11 0.09 4.477964796458249 11.170267573527637 31.0704040120878 0 1 0
4641 332 7 0.09 7.076022638220624 8.506518933844006 30.91916623399039 -1 -1 1
4894 350 8 0.09 1.8186365475727986 8.403629199961253 29.56439265920059 0 1 0
4636 332 2 0.02 8.77269409569384 7.429013961041469 31.957650369937195 -1 -1 1
4642 332 8 0.09 6.610060822795916 7.053256267625592 31.839073454029368 -1 -1 1
293 21 13 0.09 7.527614190946567 11.192523151727197 29.485000869542464 1 -1 0
294 21 14 0.09 8.984467881427655 10.8498218146281 30.562942350436945 1 -1 0
6640 475 4 0.02 10.554513934392507 3.2025573648127037 28.020963108889152 1 2 -1
4896 350 10 0.09 4.82342637053662 8.094910777444053 29.343351169845327 0 1 0
4639 332 5 0.02 7.839196772900207 5.300951843642761 30.418183405417846 -1 -1 1
4645 332 11 0.09 9.636259554616196 4.203104758435731 31.396752061192224 -1 -1 1
6639 475 3 -0.4 9.190152704555107 2.746604986436689 27.968045859923727 1 2 -1
287 21 7 0.09 11.059025330440587 10.358467639228806 29.716895747641487 1 -1 0
4898 350 12 0.09 5.192596475413573 9.53041359383749 31.181043049367837 0 1 0
4889 350 3 -0.4 4.0580060697871705 10.027860872745197 29.433037724817936 0 1 0
4644 332 10 0.09 9.478320715241543 7.836374133797485 31.254717087610405 -1 -1 1
4646 332 12 0.09 9.98126353905025 5.528057456124631 30.30929582684832 -1 -1 1
4900 350 14 0.09 3.094285879591028 9.575993104853046 32.66014811552672 0 1 0
4890 350 4 0.02 4.304554391022102 10.107483994412215 30.851072050002998 0 1 0
285 21 5 0.02 8.64304867569893 11.310375994812512 29.555939912470457 1 -1 0
4635 332 1 0.02 7.3789644183370315 7.500832898844263 31.220898126324506 -1 -1 1
4640 332 6 -0.4 7.22787686344678 6.6130287412327045 30.117235327795555 -1 -1 1
4891 350 5 0.02 3.0655954390558815 9.505569127878411 31.569488459031692 0 1 0
4899 350 13 0.09 2.2921359266518837 10.130751163753096 31.175573425189484 0 1 0
281 21 1 0.02 10.738240003358772 10.769983499421638 28.785733611762563 1 -1 0
4858 347 14 0.09 4.075444903949837 4.943803546585596 28.371289495043488 1 1 0
4643 332 9 0.09 8.73008704907204 7.921714434454246 32.891679323659034 -1 -1 1
1699 122 5 0.02 2.0703797779757407 4.042820110516115 32.22448511015605 0 2 0
4647 332 13 0.09 7.203016548807408 4.808689370622774 31.16885260144697 -1 -1 1
4893 350 7 0.09 2.758182263457357 6.930802214639898 29.60111844105399 0 1 0
4892 350 6 -0.4 2.860133807970164 8.142959131677511 31.302890214138692 0 1 0
4638 332 4 0.02 9.274340812787116 5.241009108656021 31.108590344668226 -1 -1 1
4888 350 2 0.02 3.9088453024985865 8.712078437493446 29.130160682060787 0 1 0
1706 122 12 0.09 3.280368264220046 3.124990159084078 30.641200068010743 0 2 0
1350 97 6 -0.4 11.512031997819816 9.723217926408024 32.56535789228188 1 2 -1
4895 350 9 0.09 3.679582266777081 8.389008001448744 28.070131998781896 0 1 0
4648 332 14 0.09 7.839828885209529 4.741479020504942 29.512124248085655 -1 -1 1
6648 475 12 0.09 10.681828680591114 4.290196302383563 28.248632529730056 1 2 -1
1698 122 4 0.02 2.8924967655595055 4.167569225721922 30.896581795385092 0 2 0
4887 350 1 0.02 2.778203345256042 7.989930903367185 29.896311393048 0 1 0
1697 122 3 -0.4 1.9916025148746637 4.744065389327715 29.962971761275014 0 2 0
1707 122 13 0.09 1.7149010670175973 5.04831737313566 32.53102223505464 0 2 0
288 21 8 0.09 11.15772429736021 10.122762805650993 27.97085705197301 1 -1 0
927 67 3 -0.4 3.5250819964894973 5.167056894607862 34.64771436053974 0 0 -1
925 67 1 0.02 5.243016369837209 6.195659199260108 35.839421715185125 0 0 -1
6707 480 1 0.02 6.629271360032704 10.022219903092227 34.36059066524023 -1 0 -1
932 67 8 0.09 4.9014688620636 5.694322913442626 36.76908708721762 0 0 -1
931 67 7 0.09 6.261940294626562 6.298016156342642 36.16423503766724 0 0 -1
3887 278 9 0.09 1.9797202858402103 10.85689786268114 36.85975415287545 1 -1 0
934 67 10 0.09 5.408637887753529 5.812393968842457 33.8231070090321 0 0 -1
6391 457 7 0.09 8.714343516886549 5.1236874408685065 35.29656970532076 -1 1 0
6397 457 13 0.09 8.498167685158208 7.911334876440777 37.334040556613296 -1 1 0
6931 496 1 0.02 9.648431464914959 1.987812450388262 34.48235854989424 1 2 1
6394 457 10 0.09 10.91094175540804 5.333494153280079 35.95314883931341 -1 1 0
810 58 12 0.09 3.137468350429957 3.121296119992178 35.90426616446095 1 0 0
6395 457 11 0.09 10.908921526215364 8.403996924478138 37.821713244900614 -1 1 0
6713 480 7 0.09 6.38083629628512 8.990715604139336 34.39910870154399 -1 0 -1
6714 480 8 0.09 7.609821272046574 10.128590567033337 34.94932822205026 -1 0 -1
6936 496 6 -0.4 8.282826678256573 2.2869372749132544 34.41546693579334 1 2 1
929 67 5 0.02 3.325055277815223 7.504775422906799 35.58262667906201 0 0 -1
6390 457 6 -0.4 8.715668849929099 5.939395703896003 37.0443454737795 -1 1 0
6396 457 12 0.09 11.219974462771756 6.617853658349842 37.905744989738345 -1 1 0
808 58 10 0.09 3.958036713091968 2.217432318139487 38.197274271411665 1 0 0
6475 463 7 0.09 8.541069220998022 11.756432209036179 36.188539003938104 1 -1 1
933 67 9 0.09 5.26878298700441 4.297809150709178 34.79284079026673 0 0 -1
937 67 13 0.09 3.0089372075032865 7.093640415417467 36.55034746669919 0 0 -1