LAMMPS data file via write_data, version 29 Aug 2024, timestep = 1000000, units = real

5120 atoms
10 atom types
4608 bonds
9 bond types
7168 angles
14 angle types
9728 dihedrals
19 dihedral types
2048 impropers
4 improper types

3.9611127783607394 41.03888722164551 xlo xhi
3.9611127783607394 41.03888722164551 ylo yhi
3.9611127783607394 41.03888722164551 zlo zhi

Masses

1 15.999
2 12.011
3 12.011
4 15.999
5 1.008
6 1.008
7 1.008
8 1.008
9 1.008
10 1.008

Pair Coeffs # lj/charmmfsw/coul/long

1 0.192101 3.14487 0.192101 3.14487
2 0.055999 3.58141 0.01 3.38542
3 0.055999 3.58141 0.01 3.38542
4 0.192101 3.14487 0.192101 3.14487
5 0.045999 0.400014 0.045999 0.400014
6 0.035 2.38761 0.035 2.38761
7 0.035 2.38761 0.035 2.38761
8 0.035 2.38761 0.035 2.38761
9 0.035 2.38761 0.035 2.38761
10 0.045999 0.400014 0.045999 0.400014

Bond Coeffs # harmonic

1 428 1.42
2 222.5 1.53
3 428 1.42
4 545 0.96
5 309 1.111
6 309 1.111
7 309 1.111
8 309 1.111
9 545 0.96

Angle Coeffs # charmm

1 75.7 110.1 0 0
2 75.7 110.1 0 0
3 50 106 0 0
4 45.9 108.89 0 0
5 45.9 108.89 0 0
6 26.5 110.1 22.53 2.179
7 26.5 110.1 22.53 2.179
8 50 106 0 0
9 45.9 108.89 0 0
10 35.5 109 5.4 1.802
11 26.5 110.1 22.53 2.179
12 26.5 110.1 22.53 2.179
13 45.9 108.89 0 0
14 35.5 109 5.4 1.802

Dihedral Coeffs # charmmfsw

1 0.2 3 0 1
2 1.13 1 0 1
3 1.13 1 0 1
4 0.18 3 0 1
5 0.195 3 0 1
6 0.195 3 0 1
7 0.195 3 0 1
8 0.18 3 0 1
9 0.195 3 0 1
10 0.22 3 0 1
11 0.18 3 0 1
12 0.22 3 0 1
13 0.22 3 0 1
14 0.18 3 0 1
15 0.22 3 0 1
16 0.14 2 0 0
17 0.24 3 0 0
18 0.14 2 0 0
19 0.24 3 0 0

Improper Coeffs # harmonic

1 0 0
2 0 0
3 0 0
4 0 0

Atoms # full

4059 406 9 0.09 6.628680258097726 10.962738065235914 5.177259355130962 1 1 1
3579 358 9 0.09 4.552226863268086 7.7249184537946345 8.430165049324028 1 1 1
4057 406 7 0.09 5.872668680832689 9.656622049687627 7.820270379802553 1 1 1
4056 406 6 0.09 4.748606708022156 9.836064627802179 6.412964534183461 1 1 1
885 89 5 0.419 4.774565784416012 7.565920389565354 12.30179873777505 0 1 0
5017 502 7 0.09 7.8558421476259594 12.225431925546498 10.517630053061087 1 0 1
3673 368 3 0.041 6.009220423628506 4.228270478946996 4.693790605275538 1 1 1
2405 241 5 0.419 6.495869005351418 7.786998630741338 4.271337945451377 1 0 0
3634 364 4 -0.64 6.184373301024014 4.321567902465765 11.75501314906319 1 0 0
4051 406 1 -0.64 5.3955397967288725 11.571741706745353 7.256003435179071 1 1 1
3580 358 10 0.419 4.849351062636708 6.124763536632096 9.965884980209818 1 1 1
4058 406 8 0.09 7.8426421831064 10.692117360635795 6.430254801356574 1 1 1
5012 502 2 0.041 8.565316959686449 12.477006287694543 9.688048318693742 1 0 1
4055 406 5 0.419 4.650699316384233 11.524290817535928 7.862970694114942 1 1 1
4054 406 4 -0.64 7.267437059807521 8.94097530201473 5.462456484754934 1 1 1
4257 426 7 0.09 8.215774064944638 6.526204937379424 7.307737145393537 0 1 0
4053 406 3 0.041 6.909919822690209 10.234249739161246 5.934516400820982 1 1 1
4060 406 10 0.419 8.119504936629248 9.00576621231496 5.078540093585536 1 1 1
4251 426 1 -0.64 7.507508772830702 4.610046802653889 7.735312346230602 0 1 0
2976 298 6 0.09 4.612898829050811 10.940362642281979 11.131749702281338 1 0 0
1297 130 7 0.09 5.6781333478393385 12.74135984816859 4.869186295630909 -1 0 0
4052 406 2 0.041 5.6744663824580535 10.219605639093722 6.863981571120236 1 1 1
881 89 1 -0.64 4.481716770262342 6.7207261994576255 11.874126759008213 0 1 0
4252 426 2 0.041 8.53079175524644 5.6095566627837155 7.809606364543153 0 1 0
4255 426 5 0.419 6.696350531488083 5.147349634725896 8.119577336091941 0 1 0
2979 298 9 0.09 4.874120932129653 13.002136601997401 9.6216299309601 1 0 0
4527 453 7 0.09 7.16782993351038 9.451283995736741 13.092150343981094 1 0 1
3640 364 10 0.419 5.577706932828231 5.05421682175106 11.978129386732206 1 0 0
5015 502 5 0.419 7.053603369028249 12.441499475840502 8.5869137586068 1 0 1
3678 368 8 0.09 4.909686028047506 4.364840306176239 4.58915493163519 1 1 1
2973 298 3 0.041 4.2392515565695055 12.930344435899473 10.569193250994772 1 0 0
3574 358 4 -0.64 4.691344999334352 5.793777015597845 9.075910331937873 1 1 1
3576 358 6 0.09 4.528278755666053 6.293647495351032 6.294541771677121 1 1 1
4528 453 8 0.09 7.005792552360268 6.835930603620712 12.93524936264932 1 0 1
5011 502 1 -0.64 7.809129187887719 13.041598332604263 8.652739552657586 1 0 1
3679 368 9 0.09 6.457047525370035 5.208861367841155 5.094880069695718 1 1 1
4526 453 6 0.09 7.162458027295703 9.302628451766376 14.901218023606717 1 0 1
4522 453 2 0.041 6.795058434266204 8.819355275802474 13.923054484053408 1 0 1
159 16 9 0.09 4.961802910777409 12.412829495586823 21.936779257717404 0 0 1
4855 486 5 0.419 6.481509613913806 7.060291104507931 17.411569255499323 1 0 1
153 16 3 0.041 4.224074493177944 11.830763854996654 21.382798770845895 0 0 1
156 16 6 0.09 5.245062758588653 10.707893592406144 19.84651705101022 0 0 1
4851 486 1 -0.64 6.227204280434221 7.944237377838084 17.365760578158515 1 0 1
4529 453 9 0.09 6.481021417817368 6.886785042924018 14.706693393276854 1 0 1
4853 486 3 0.041 4.275381466101586 9.46063149882241 17.025292433572886 1 0 1
1508 151 8 0.09 6.440415643581478 11.93291310237596 15.940101314185858 0 0 1
1624 163 4 -0.64 6.762100074937742 5.093887940591129 17.731707183406165 1 1 1
1503 151 3 0.041 5.965051463684227 12.481057409350406 15.070482349201034 0 0 1
4524 453 4 -0.64 8.47098194985766 7.261414451452703 14.427696407010473 1 0 1
1145 115 5 0.419 7.417775220111935 4.664211831297203 21.03954462596456 0 0 0
4857 486 7 0.09 4.317179390044116 7.183114954286207 17.39516267204705 1 0 1
1630 163 10 0.419 7.474417761419437 5.036276810457382 18.371759498813198 1 1 1
152 16 2 0.041 4.642599405708888 11.623065305117976 19.934264329739293 0 0 1
154 16 4 -0.64 4.1785338926704245 10.5507718771762 22.05309627015166 0 0 1
4523 453 3 0.041 7.153046415793494 7.367252013202977 13.91937829980077 1 0 1
2994 300 4 -0.64 7.480943976008888 10.781487167813836 17.883700346879607 1 0 0
151 16 1 -0.64 5.459913640510058 12.739043533719553 19.615733162846084 0 0 1
3000 300 10 0.419 7.042629204953691 10.010272877525953 17.69765340526633 1 0 0
1509 151 9 0.09 6.725191086563058 12.778638362233899 14.283653367601538 0 0 1
2993 300 3 0.041 8.471559863753967 10.522562048378049 18.869634460659718 1 0 0
1504 151 4 -0.64 5.012260764271545 11.677382190333837 14.31742218015432 0 0 1
1510 151 10 0.419 5.154273760126894 12.201302657774457 13.513983970205445 0 0 1
2998 300 8 0.09 8.081632222672198 9.609224748749302 19.43125196645483 1 0 0
4852 486 2 0.041 4.841634674669283 8.09272087662039 17.677964863079374 1 0 1
2997 300 7 0.09 7.723215596590634 11.850219733949947 20.332035264026356 1 0 0
4784 479 4 -0.64 4.541211763216307 6.561935922888318 21.94662793827961 1 1 0
1626 163 6 0.09 4.732292746228525 4.3617296370895176 16.094673947213792 1 1 1
155 16 5 0.419 5.996382747627834 12.364930267716158 18.85963979508164 0 0 1
1629 163 9 0.09 4.905586657962716 4.546251947836651 18.51282729347507 1 1 1
1141 115 1 -0.64 7.902413766222772 4.7190237012333505 20.186521449022536 0 0 0
2299 230 9 0.09 7.362434446555948 8.777639696347041 22.242540606918652 0 1 0
4856 486 6 0.09 4.799668795258697 8.149403434934225 18.838528213404132 1 0 1
4788 479 8 0.09 4.645765352325726 5.988353955255624 19.974629384939913 1 1 0
4859 486 9 0.09 5.002986579845778 10.29697236015237 17.150301251748346 1 0 1
4525 453 5 0.419 5.195626742083687 9.949565037570228 14.118453064542333 1 0 1
4521 453 1 -0.64 5.3927925848267435 8.986775103057894 13.900873375539762 1 0 1
4858 486 8 0.09 4.25006872933564 9.160569080064471 15.926224940935935 1 0 1
1507 151 7 0.09 4.491361847969779 13.177322708611891 16.53723882204008 0 0 1
1623 163 3 0.041 5.809345030351545 4.039179587128578 17.971142727549143 1 1 1
4530 453 10 0.419 8.488958426115175 6.278698505350755 14.586057781325582 1 0 1
2665 267 5 0.419 7.719895070058895 4.766980879175796 27.714172469729686 1 0 0
2292 230 2 0.041 7.146711784698741 8.919210187058889 24.32522774946531 0 1 0
1848 185 8 0.09 8.16149637009944 9.014039277523803 30.05518760026718 0 1 -1
2871 288 1 -0.64 5.783146356436002 10.28991508274014 26.825105984016734 0 0 0
2663 267 3 0.041 5.15808387277273 6.76373926537371 27.624242065316878 1 0 0
2294 230 4 -0.64 6.858674052045959 6.9282448053414125 23.16771495299098 0 1 0
2664 267 4 -0.64 4.397348836513158 7.34062872679614 26.539180872548403 1 0 0
2668 267 8 0.09 5.47236225773105 7.668555015090295 28.09231974294505 1 0 0
4882 489 2 0.041 4.149407783701618 9.069106322398248 31.445650294146375 1 1 -1
2667 267 7 0.09 6.822515330325491 6.465150312715322 26.37288730891393 1 0 0
2291 230 1 -0.64 7.666109921897353 10.250613310332602 24.509822230503268 0 1 0
2872 288 2 0.041 6.329717442182355 10.910721995362458 28.019797188371694 0 0 0
2876 288 6 0.09 6.365846298830826 10.145236292830864 28.823257381723266 0 0 0
2878 288 8 0.09 7.493475987670326 12.358571221917423 27.110245530327145 0 0 0
1843 185 3 0.041 8.263177445291568 7.855871916572747 30.131118454785266 0 1 -1
2297 230 7 0.09 7.255537185744753 8.290032362073532 25.256000832457925 0 1 0
2295 230 5 0.419 7.162663102301055 10.681227927320634 25.19764948743726 0 1 0
2666 267 6 0.09 5.782031420479705 4.998105877793943 26.557308790519567 1 0 0
2877 288 7 0.09 5.75086390896286 11.78081610196271 28.49440342988948 0 0 0
2662 267 2 0.041 6.2530004506074075 5.836383196104004 27.063794196762885 1 0 0
3884 389 4 -0.64 6.175467495177898 4.92840296518372 31.328263721798024 1 0 0
3888 389 8 0.09 5.0789982135336835 4.234595566134823 29.720859890929948 1 0 0
2670 267 10 0.419 4.681263548100699 8.313740204856641 26.53787413351837 1 0 0
4881 489 1 -0.64 5.470467832486542 9.229270321466217 30.955339477104964 1 1 -1
2873 288 3 0.041 7.751715539734997 11.509458441251805 27.762905943898843 0 0 0
1849 185 9 0.09 7.3201637175028536 7.35860940023127 29.939824056770494 0 1 -1
3890 389 10 0.419 7.008075982524711 4.854241271283317 30.907863797213068 1 0 0
2875 288 5 0.419 4.815004244574587 10.212799399747738 26.941606945732513 0 0 0
2661 267 1 -0.64 7.008922750573884 5.360903443475911 28.135302768514123 1 0 0
2293 230 3 0.041 7.627020513772196 8.144131961353132 23.104222287227742 0 1 0
2296 230 6 0.09 5.958884677985898 9.055649956127887 24.056301442601118 0 1 0
2874 288 4 -0.64 8.251276558074714 11.884017948141782 29.092517439219577 0 0 0
4885 489 5 0.419 6.0858631606847595 9.212460244109437 31.711741678073523 1 1 -1
3775 378 5 0.419 7.129377521936977 4.695443365883252 23.440880041608636 0 1 0
2879 288 9 0.09 8.362284917267086 10.708345570284045 27.29888190106653 0 0 0
2669 267 9 0.09 4.5632030979135525 6.151819906989855 28.3998011942661 1 0 0
2300 230 10 0.419 5.9834246099943 6.912565025306649 22.76555594977835 0 1 0
4039 404 9 0.09 6.252625912391668 12.375902214166622 25.076942507713476 0 0 0
4034 404 4 -0.64 4.322671961723479 12.579465464794954 24.52403363318752 0 0 0
4033 404 3 0.041 5.411843149839472 13.139253713189445 25.24303567612823 0 0 0
160 16 10 0.419 4.3379330004589685 10.796789974533574 22.96948617834305 0 0 1
3771 378 1 -0.64 7.190062612736018 3.9771828407056162 22.79858435761967 0 1 0
1842 185 2 0.041 8.543303786680578 7.688599413175398 31.640462397502493 0 1 -1
25 3 5 0.419 4.010551450835879 6.3247437304985406 25.181485478102164 1 0 -1
4038 404 8 0.09 5.116918543727037 12.961602698756456 26.287194256343057 0 0 0
3131 314 1 -0.64 4.918832042460548 12.270183770788913 38.19482588328651 0 1 -1
3494 350 4 -0.64 8.32557635490112 10.918321234401345 33.82879766243331 1 0 0
2401 241 1 -0.64 6.086793203273305 7.384536422975067 40.56143787039561 1 0 -1
3132 314 2 0.041 4.3319704587176115 12.788311148143315 37.04966762932928 0 1 -1
2402 241 2 0.041 5.323286754995195 8.477499179632243 39.95518347949175 1 0 -1
1832 184 2 0.041 4.637936517101788 12.834940462616403 33.31047849122433 0 1 0
3491 350 1 -0.64 8.472823674276125 8.152729961961253 35.04400201517622 1 0 0
2406 241 6 0.09 5.71317043753617 9.467781496800736 40.26956926621729 1 0 -1
4887 489 7 0.09 4.1761656845727755 8.80440308839934 32.54194534449398 1 1 -1
1845 185 5 0.419 7.833660584509129 8.096762809567295 33.455927645888 0 1 -1
1836 184 6 0.09 4.836269413800104 11.768325826141051 33.34831767203788 0 1 0
4132 414 2 0.041 6.153626826005884 4.48194790390024 34.725061328852746 1 1 0
1840 184 10 0.419 7.500314272750364 12.951313979596259 33.80062544481456 0 1 0
2403 241 3 0.041 5.305730704106583 8.317461875391585 38.38084195350767 1 0 -1
3135 314 5 0.419 4.948827313610228 11.290328616251347 38.05432717947693 0 1 -1
4131 414 1 -0.64 5.938121702597392 5.70049495525861 34.00106880335989 1 1 0
1296 130 6 0.09 6.809374145108256 13.151558529113974 40.59070029945899 -1 0 -1
3671 368 1 -0.64 6.044138051047208 4.845807208114678 39.42824045383155 1 1 0
3493 350 3 0.041 7.84435343994195 10.508630102217408 35.10418287770295 1 0 0
2407 241 7 0.09 4.2842859578424 8.40177489878031 40.25692634769608 1 0 -1
2404 241 4 -0.64 4.425280552631909 9.309594402792865 37.755770975465 1 0 -1
1839 184 9 0.09 6.431800323204978 13.066495770152043 32.1490013546541 0 1 0
4267 427 7 0.09 8.295501730401623 8.14284611741406 38.65479639059906 1 1 -1
2320 232 10 0.419 4.811661251590135 6.958620936199168 34.82806075027128 0 1 0
3500 350 10 0.419 8.009932918925038 10.179968621520793 33.257034284873825 1 0 0
3499 350 9 0.09 6.775409911168607 10.181605734657992 34.93652546205246 1 0 0
2409 241 9 0.09 6.290851574386471 8.601845305141591 38.10384983069133 1 0 -1
4139 414 9 0.09 7.2912201610325145 5.568553151131 36.18111856947107 1 1 0
2408 241 8 0.09 4.97608854497012 7.279420292345188 38.167205582678534 1 0 -1
4133 414 3 0.041 6.337790095287291 4.970879620517486 36.1347493251088 1 1 0
4138 414 8 0.09 5.4669238086301934 5.536049683923298 36.45834596571933 1 1 0
4135 414 5 0.419 6.00413968760204 5.399374197383905 33.09421792102772 1 1 0
1841 185 1 -0.64 7.660462131851805 8.412445296834242 32.50751822448558 0 1 -1
3675 368 5 0.419 5.893418839540454 5.768301070463645 39.86313249202972 1 1 0
3137 314 7 0.09 5.122007846920399 12.92644088479974 36.23044154474131 0 1 -1
2314 232 4 -0.64 4.31269995441457 7.600615752256131 35.435192750811936 0 1 0
3498 350 8 0.09 7.8113022768751845 11.417399220072092 35.75726332858942 1 0 0
2410 241 10 0.419 4.414519507070757 8.92455776477242 36.892850934813126 1 0 -1
4140 414 10 0.419 6.392873451119455 4.035474025676708 37.87207367084608 1 1 0
3497 350 7 0.09 8.198067963248045 9.25128591578785 36.79449492324662 1 0 0
1837 184 7 0.09 4.111501013700465 13.15746272860874 34.25464361328121 0 1 0
1846 185 6 0.09 8.338966882747524 6.595386669636502 31.86925819515306 0 1 -1
4136 414 6 0.09 7.119441470888535 4.0212789473332435 34.323770598977966 1 1 0
3672 368 2 0.041 6.538034059887283 3.9935525676390937 40.39116904739831 1 1 0
3676 368 6 0.09 7.595080584309655 3.9722007731032107 40.39418705902749 1 1 0
5094 510 4 -0.64 5.694263883383696 15.913151958791836 10.74299701775712 1 0 0
1498 150 8 0.09 5.159312602503174 20.201504497093858 8.205005554217337 0 0 0
1298 130 8 0.09 5.92817525335477 15.2393631891121 5.669559334743413 -1 0 0
1493 150 3 0.041 5.986684011321156 19.459407795533206 8.479924789804642 0 0 0
1492 150 2 0.041 6.557314707798853 18.82612905026859 7.19499391177353 0 0 0
1491 150 1 -0.64 7.266064434313417 19.73492338466837 6.379763221930933 0 0 0
1294 130 4 -0.64 7.828897908042887 14.132012458142949 5.674486336971593 -1 0 0
1500 150 10 0.419 4.759141943691746 18.84993820601376 9.898253554572525 0 0 0
5092 510 2 0.041 7.182896845299991 15.531274597316184 12.604795627459714 1 0 0
1496 150 6 0.09 7.20493689817318 17.99128479267283 7.403819506711071 0 0 0
5099 510 9 0.09 6.648373285788132 17.48489017130784 11.811727200537568 1 0 0
1494 150 4 -0.64 5.369996004121985 18.42988064687796 9.29854061744845 0 0 0
1299 130 9 0.09 6.974740144305148 15.39604424867309 4.289577310224527 -1 0 0
1292 130 2 0.041 6.036291491938386 13.537529770757672 4.183933121734027 -1 0 0
3299 330 9 0.09 5.9628426507458885 22.08140240724336 11.248709408393697 0 0 0
1497 150 7 0.09 5.709322352995549 18.43247850615375 6.623120076214139 0 0 0
5098 510 8 0.09 7.7067961067902475 16.469994156712715 10.68962906104382 1 0 0
429 43 9 0.09 4.470251974395575 21.102482512828487 4.983610407074301 0 0 0
2980 298 10 0.419 5.484010476287017 14.097689643294661 11.412965976691767 1 0 0
1293 130 3 0.041 6.67770273990085 14.638562713752473 5.058811453050719 -1 0 0
4210 421 10 0.419 7.3344332868618345 21.35922770980517 6.813719001599189 0 0 1
5100 510 10 0.419 5.5391931034642 16.56666771576765 10.029641409765997 1 0 0
3292 330 2 0.041 4.071331768464789 21.422127305730374 12.014948882427559 0 0 0
3293 330 3 0.041 4.955685510216971 22.470956926784616 11.293792338781937 0 0 0
5091 510 1 -0.64 8.477522778395524 15.757518738973971 13.107757326697422 1 0 0
5093 510 3 0.041 6.82016293091249 16.48228125214981 11.446081447596846 1 0 0
5097 510 7 0.09 7.146866388073638 14.468752007443403 12.194792768050501 1 0 0
1300 130 10 0.419 7.639972570033706 13.887320339675288 6.602438800905853 -1 0 0
1495 150 5 0.419 7.636156167812375 19.261013617006064 5.590336353459526 0 0 0
1499 150 9 0.09 6.7668584717888525 19.90854832681251 9.133963856871882 0 0 0
4204 421 4 -0.64 7.400050448298245 22.27863237464723 7.18964364247925 0 0 1
3296 330 6 0.09 4.3394781670294895 21.45187220498259 13.000011799574875 0 0 0
2974 298 4 -0.64 4.993770528942109 13.328341080561279 11.725256268670165 1 0 0
3291 330 1 -0.64 4.144679509904962 20.0994804180488 11.57696106186209 0 0 0
2938 294 8 0.09 8.395032639460378 22.14799136213817 10.832361349037248 1 1 0
4586 459 6 0.09 4.11766304590084 21.808695904025033 18.801842598686324 1 -1 0
2283 229 3 0.041 6.894448280194334 15.92616647913434 19.8795320887099 0 1 0
841 85 1 -0.64 4.5801991192819225 16.869023968555496 16.04532057899761 0 0 1
849 85 9 0.09 6.667557455194291 17.608759864913907 17.395218962957856 0 0 1
2288 229 8 0.09 7.592220845449509 15.000753171738012 19.700414209062686 0 1 0
2089 209 9 0.09 7.217896022047352 20.99675993735418 18.397618637354714 0 0 0
2445 245 5 0.419 7.398779225700611 21.03909845363979 15.287828226288859 1 0 0
2084 209 4 -0.64 7.187117280210851 20.999514954831753 20.538959446268457 0 0 0
4584 459 4 -0.64 4.816620727050791 19.785943901155278 20.42964760854475 1 -1 0
842 85 2 0.041 5.243038933264004 18.104142509161896 15.92267385488982 0 0 1
846 85 6 0.09 4.608361382334122 18.79353039241222 16.469977480672917 0 0 1
2289 229 9 0.09 6.619798907158886 16.389884087517146 18.888633986190065 0 1 0
2446 245 6 0.09 6.005303174704958 22.035887947501315 16.628445602412658 1 0 0
2284 229 4 -0.64 5.718139132544282 15.40893905478652 20.529731389865592 0 1 0
1015 102 5 0.419 4.661656426008483 16.511879809381874 21.143629667768163 0 1 1
5096 510 6 0.09 6.429949926405962 15.620975404450155 13.396828289487303 1 0 0
2441 245 1 -0.64 7.433749701803918 21.967555980646743 15.112555402226164 1 0 0
2088 209 8 0.09 8.355981095423651 19.90179531291723 19.196763192927683 0 0 0
2447 245 7 0.09 5.348214697570325 22.38687374185776 14.98664727445534 1 0 0
2083 209 3 0.041 7.906862535224427 20.85996056369874 19.300020097427144 0 0 0
2090 209 10 0.419 6.33804127628415 20.478319334366844 20.43614485327097 0 0 0
2286 229 6 0.09 6.879080984340506 17.91412594006568 20.827592350596166 0 1 0
2282 229 2 0.041 7.607830422652887 17.05346054034283 20.64018991278649 0 1 0
848 85 8 0.09 7.1324713127052615 17.14104460999968 15.718609312001817 0 0 1
1505 151 5 0.419 5.729447179533942 15.273260439524682 16.722729193790407 0 0 1
850 85 10 0.419 8.293707412057998 18.902789359839865 16.308897120157518 0 0 1
844 85 4 -0.64 7.380605746748217 19.15591271625788 16.186808897614597 0 0 1
2287 229 7 0.09 7.911651211213698 16.713442759543064 21.63711487037264 0 1 0
843 85 3 0.041 6.684529732629577 17.908468715218383 16.370721327123523 0 0 1
4590 459 10 0.419 4.691078126774138 18.871361878728024 20.817447515030356 1 -1 0
847 85 7 0.09 5.216616659513447 18.497818137345604 14.863576461077571 0 0 1
1501 151 1 -0.64 6.170202043976854 14.484550050990979 16.481147898680824 0 0 1
2290 229 10 0.419 5.776194609610314 14.408814253632674 20.48757600539618 0 1 0
1506 151 6 0.09 4.710175295133783 14.28245866128635 15.00693467851317 0 0 1
1502 151 2 0.041 5.22073894191878 13.607419115400967 15.811199352067746 0 0 1
1011 102 1 -0.64 4.0187374306669055 17.235145299141337 21.545931181457803 0 1 1
5095 510 5 0.419 8.536187833424172 15.290279842448642 13.934362643587015 1 0 0
2270 227 10 0.419 5.79361471824188 22.233135629587032 21.704478786020648 1 0 0
4031 404 1 -0.64 6.767923519085105 15.025616390608976 25.644621594570808 0 0 0
669 67 9 0.09 5.924385081035537 14.852314859830264 29.70060079534355 0 0 0
1482 149 2 0.041 7.052994900499184 18.18030013703979 26.06924158385776 0 0 0
1484 149 4 -0.64 7.523247341076322 20.53986861267182 25.851257905770886 0 0 0
4032 404 2 0.041 5.773364457891393 14.587674165515097 24.79434801424308 0 0 0
4520 452 10 0.419 5.057357237083003 20.39983619599957 30.701507930217883 1 -1 -1
665 67 5 0.419 6.769537965364101 18.49339370871629 29.832590938308037 0 0 0
1488 149 8 0.09 6.31336261928893 19.75879427703061 27.423326126656033 0 0 0
1490 149 10 0.419 7.152022397924684 21.477474137919053 25.862419536057292 0 0 0
4035 404 5 0.419 7.100269939039952 15.929293918362454 25.338482277172975 0 0 0
3655 366 5 0.419 4.471115916793938 17.519302524615227 29.859098273556082 1 0 0
664 67 4 -0.64 7.699650908853355 14.30729587515294 30.40337114044263 0 0 0
4036 404 6 0.09 6.186484862218692 14.525486765896906 23.745074058911577 0 0 0
1486 149 6 0.09 8.068346300998018 17.89422446194279 26.532124668149372 0 0 0
661 67 1 -0.64 6.3243748507710045 17.69552165806688 29.522712970345424 0 0 0
1487 149 7 0.09 6.41065419305092 17.60060035750735 26.776954451501247 0 0 0
4514 452 4 -0.64 6.013812132091987 20.318443371842147 30.524182993201155 1 -1 -1
668 67 8 0.09 7.273961264569453 15.134039494342248 28.564728593104434 0 0 0
666 67 6 0.09 6.719237137182482 16.549053042862738 31.284791635173566 0 0 0
663 67 3 0.041 6.933962530205681 15.203974286300392 29.639109055098686 0 0 0
4037 404 7 0.09 4.872667119142057 15.24453380719739 24.903666127204975 0 0 0
662 67 2 0.041 7.053293103513592 16.67270759812577 30.23064413276646 0 0 0
2268 227 8 0.09 6.036144478117755 21.352369615427694 23.593709875782093 1 0 0
1489 149 9 0.09 5.505683508757741 19.636966937109975 25.751294839648445 0 0 0
667 67 7 0.09 8.114537013697099 16.963599572526363 30.216037611127827 0 0 0
1481 149 1 -0.64 7.085992692682026 17.80473571227689 24.690975735979283 0 0 0
670 67 10 0.419 7.585042121932513 13.432116180037559 29.971099610081126 0 0 0
1485 149 5 0.419 7.730793858020309 18.383217033399294 24.27715735127386 0 0 0
1483 149 3 0.041 6.501869764002777 19.63551603534359 26.333794165014204 0 0 0
1016 102 6 0.09 4.838727350268986 17.337742569192812 23.539219882994594 0 1 1
4517 452 7 0.09 8.22281575257874 21.16951111014093 31.27681277303338 1 -1 -1
2263 227 3 0.041 6.213337405047292 22.428553350428476 23.586604697866647 1 0 0
4516 452 6 0.09 8.419132743924056 19.46488324693813 31.11942487227997 1 -1 -1
2686 269 6 0.09 8.491164792281435 13.50413102873986 38.19567171963551 0 1 0
4124 413 4 -0.64 7.23491156787031 16.538843343342506 34.60021080248036 1 0 0
4123 413 3 0.041 6.511096592394404 17.739831913858758 34.85737965991714 1 0 0
95 10 5 0.419 6.222422085062897 20.75406912398367 40.28126552537768 0 -1 -1
4126 413 6 0.09 5.394017913758663 17.412581271202384 33.137659041138306 1 0 0
1833 184 3 0.041 6.004940224230623 13.561707716343205 33.05440195232559 0 1 0
4128 413 8 0.09 6.308324797677431 17.77340619167589 35.923173969334506 1 0 0
4518 452 8 0.09 6.120816591488342 20.66704637452799 32.54330319314555 1 -1 -1
3138 314 8 0.09 4.422207564468324 14.71228552882672 37.849902318238435 0 1 -1
421 43 1 -0.64 4.3367470555306 20.777437497499662 39.36054788109969 0 0 -1
4916 492 6 0.09 5.123695354752685 21.352047385407033 35.3409549653215 1 0 -1
1838 184 8 0.09 5.723605544378995 14.64925987387811 32.93830080525484 0 1 0
3160 316 10 0.419 6.262713392728639 17.989328179588654 39.27029570221437 0 1 -1
4121 413 1 -0.64 4.579508437803036 18.864663905389648 34.16225954785732 1 0 0
4519 452 9 0.09 6.3539312111115285 19.0485349537662 32.17620819541668 1 -1 -1
4915 492 5 0.419 7.308590776390757 20.996266910432816 34.625510756282935 1 0 -1
91 10 1 -0.64 7.0172615799757025 20.215895335515008 40.48821913090603 0 -1 -1
4130 413 10 0.419 6.887715185129316 15.75820554065632 35.070575492049755 1 0 0
3159 316 9 0.09 5.028174722755024 16.978461072520997 37.790053201820825 0 1 -1
3153 316 3 0.041 4.629075858682711 17.76537522644195 38.407694346312894 0 1 -1
4911 492 1 -0.64 7.1194223100015375 21.098017236812098 35.61257569126046 1 0 -1
4122 413 2 0.041 5.1726642257660185 17.588332148317765 34.161087545378514 1 0 0
4919 492 9 0.09 5.976139445822156 22.035657431431233 37.86137172449229 1 0 -1
4129 413 9 0.09 6.960888103435253 18.67579278940816 34.4788455924667 1 0 0
96 10 6 0.09 7.770909132543727 21.207299108894922 38.784035769082706 0 -1 -1
4912 492 2 0.041 5.971710951145806 21.942952501450215 35.64213485447024 1 0 -1
92 10 2 0.041 8.176383278066403 20.627625673060052 39.70342947065258 0 -1 -1
425 43 5 0.419 4.0080000831268 20.80238600712768 38.468708337122564 0 0 -1
3158 316 8 0.09 4.84129872517663 18.720567356709502 37.818513969362016 0 1 -1
4512 452 2 0.041 8.06712700116732 20.242211231979596 31.78120840285922 1 -1 -1
3154 316 4 -0.64 5.325454267267866 17.881389443915587 39.583255033680146 0 1 -1
1291 130 1 -0.64 4.976457332387516 14.041677186216619 40.51202670971341 -1 0 -1
4127 413 7 0.09 4.63788403744826 16.7871675176448 34.57238337045273 1 0 0
430 43 10 0.419 4.241111244963672 18.945967761749127 40.949512676515596 0 0 -1
1834 184 4 -0.64 6.78634740105609 13.460331297300627 34.22392579735825 0 1 0
1295 130 5 0.419 4.886134235700627 13.33279997521825 39.821275394090875 -1 0 -1
4513 452 3 0.041 6.592971506181706 20.0634785518832 31.779306351633764 1 -1 -1
3005 301 5 0.419 8.457717274011737 22.132851719779612 36.196604221800484 0 0 0
325 33 5 0.419 4.082702740489287 31.316792659887767 8.16020045229176 0 0 0
1981 199 1 -0.64 6.069466100479291 26.375431558864218 10.685670941086073 1 0 0
1305 131 5 0.419 4.543691956925891 25.197238874562764 6.768820562276168 0 0 0
1989 199 9 0.09 8.335879219860928 25.64435132562114 11.929329015630909 1 0 0
1983 199 3 0.041 8.305472893540212 25.435070821434056 10.874087545620217 1 0 0
2905 291 5 0.419 6.669412567870008 23.912606155589405 6.700716323287296 1 0 0
1887 189 7 0.09 7.925750954327016 31.42946491916539 7.008599145668857 0 0 1
328 33 8 0.09 4.926431096622466 29.28364236079119 11.141112146539864 0 0 0
1890 189 10 0.419 8.044893574206096 29.101785561814594 8.382429109291166 0 0 1
1982 199 2 0.041 7.4014369516070015 26.389317723063346 10.173046386562275 1 0 0
4807 481 7 0.09 7.307813669391829 27.065902002140696 6.1274209059665985 1 0 0
3294 330 4 -0.64 4.9187699434121095 23.7156526259614 11.974227738623016 0 0 0
4803 481 3 0.041 6.087454301173694 28.82115545827384 6.569086461720122 1 0 0
1888 189 8 0.09 7.53933892102094 30.811320575164462 9.358867532783666 0 0 1
4804 481 4 -0.64 6.1076165010799635 28.774080032962956 7.991993623708443 1 0 0
3300 330 10 0.419 5.425444174150082 24.450005595932527 11.53815756279446 0 0 0
2906 291 6 0.09 4.8364347449216565 23.556648012555737 5.019725154789979 1 0 0
1988 199 8 0.09 7.916674396719007 24.417304305091733 10.724093222699118 1 0 0
1986 199 6 0.09 7.780624612835049 27.437056241799787 10.155207168818496 1 0 0
3298 330 8 0.09 4.509251687606172 22.627510060587788 10.289734172727886 0 0 0
4809 481 9 0.09 6.107415259834413 29.893345559770598 6.182431948909079 1 0 0
4802 481 2 0.041 7.234727593022365 28.147147040379167 5.891604705035762 1 0 0
4808 481 8 0.09 5.181126570786049 28.418482502272074 6.125905561534603 1 0 0
1694 170 4 -0.64 7.3157997578071665 30.140883175930227 12.355152650299505 -1 0 0
1985 199 5 0.419 5.62751856221914 27.051417509310035 10.065810472613471 1 0 0
4801 481 1 -0.64 7.115430557914369 28.24202197689366 4.490843897968846 1 0 0
4810 481 10 0.419 5.395089411811896 29.300236024381782 8.42433769299772 1 0 0
4806 481 6 0.09 8.145418014963672 28.569121087106577 6.2965648306971955 1 0 0
1987 199 7 0.09 7.297527930009949 26.209753996527873 9.112901856915983 1 0 0
2902 291 2 0.041 5.777353661864945 24.106687026517694 4.91280762043269 1 0 0
2901 291 1 -0.64 6.208539243473343 24.648672589578158 6.196642347603959 1 0 0
1700 170 10 0.419 7.876432653180352 29.372300390756294 12.28663590259579 -1 0 0
321 33 1 -0.64 4.205311413551112 30.558737725194305 8.812023798015833 0 0 0
2909 291 9 0.09 4.907533320679846 26.116004127902944 4.313232577682892 1 0 0
2907 291 7 0.09 6.618427722471676 23.414697892119012 4.63620983434802 1 0 0
4805 481 5 0.419 7.763533289505597 27.707042817580174 3.9797256155491088 1 0 0
323 33 3 0.041 3.9747093400128204 29.84203451631686 11.12390470228408 0 0 0
322 33 2 0.041 4.1105118346884995 31.07411096279167 10.150000294641636 0 0 0
1307 131 7 0.09 3.9931296494199 23.212852126695637 7.4609757563207815 0 0 0
2443 245 3 0.041 6.404293584366011 24.112730061953386 15.818901387464514 1 0 0
1938 194 8 0.09 7.685104113304646 26.726324086223435 17.802835261728607 0 -1 0
4120 412 10 0.419 7.194366718367857 28.521143324606005 22.14773686617622 0 -1 0
4113 412 3 0.041 8.043899901065558 30.313892039614693 22.181352448790168 0 -1 0
2444 245 4 -0.64 5.260688554732132 24.79221710308396 16.431533649631717 1 0 0
2448 245 8 0.09 6.535650358015909 24.627704399793238 14.807432505688329 1 0 0
2918 292 8 0.09 4.610150221193231 25.353946915839487 20.111609788090654 0 1 -1
3120 312 10 0.419 4.466783212258757 29.407197286573705 18.362023007972756 0 1 0
1934 194 4 -0.64 8.356290549769067 27.07434345508319 19.741426481410496 0 -1 0
1939 194 9 0.09 6.724799254856666 27.866775012957202 18.88224955900096 0 -1 0
1182 119 2 0.041 3.976317409364538 27.05925413580789 14.279780349438353 0 0 1
2920 292 10 0.419 4.1922263367252315 24.564981598542406 22.348593701088756 0 1 -1