LAMMPS data file via write_data, version 29 Sep 2021, timestep = 1000000

6655 atoms
5 atom types
5324 bonds
4 bond types
5324 angles
4 angle types
2662 dihedrals
2 dihedral types
1331 impropers
1 improper types

-2.0875226490525987 47.08752264905068 xlo xhi
-2.0875226490525987 47.08752264905068 ylo yhi
-2.0875226490525987 47.08752264905068 zlo zhi

Masses

1 12.011
2 12.011
3 32.06
4 1.008
5 1.008

PairIJ Coeffs # lj/charmmfsw/coul/long

1 1 0.064 3.70614 0.064 3.70614
1 2 0.075895 3.63487 0.075895 3.63487
1 3 0.190158 3.67941 0.190158 3.67941
1 4 0.040792 2.9756 0.040792 2.9756
1 5 0.040792 2.9756 0.040792 2.9756
2 2 0.09 3.56359 0.09 3.56359
2 3 0.225499 3.60814 0.225499 3.60814
2 4 0.048374 2.90433 0.048374 2.90433
2 5 0.048374 2.90433 0.048374 2.90433
3 3 0.565 3.65268 0.565 3.65268
3 4 0.121202 2.94888 0.121202 2.94888
3 5 0.121202 2.94888 0.121202 2.94888
4 4 0.026 2.24506 0.026 2.24506
4 5 0.026 2.24506 0.026 2.24506
5 5 0.026 2.24506 0.026 2.24506

Bond Coeffs # harmonic/omp

1 230.85 1.5026
2 300 1.63
3 365 1.1
4 365 1.1

Angle Coeffs # charmm/omp

1 43.53 114.54 18.61 2.6826
2 40 116 0 0
3 40 116 0 0
4 19 119 0 0

Dihedral Coeffs # charmmfsw

1 0 2 180 1
2 0 2 180 1

Improper Coeffs # harmonic/omp

1 0 0

Atoms # full

3302 661 2 -0.88 -1.2340945253400073 4.410202804597045 -0.23706985459097688 1 0 0
2471 495 1 -0.351 2.21866809197758 7.800495253384314 0.12293792296275992 0 0 1
5670 1134 5 0.21 1.4401227730786936 6.810211474246426 9.154247640261136 1 0 0
4204 841 4 0.21 -0.09399458381706416 2.081339976492735 7.4909133264074015 0 0 0
1369 274 4 0.21 1.3836267365285457 3.647557773535295 2.888768785503051 0 0 1
4201 841 1 -0.351 0.3677706290402729 2.0425239096771484 8.522108007527423 0 0 0
332 67 2 -0.88 3.270779310447543 -0.784661481972557 4.944949909198894 0 0 0
167 34 2 -0.88 2.5743704289028364 1.0617669506526535 -0.21656791687262766 0 0 0
2547 510 2 -0.88 -1.802781766363097 1.691586495691872 5.7653655263781385 1 0 0
4205 841 5 0.21 -0.07888103202761299 2.484238062879865 9.420497471028446 0 0 0
2092 419 2 -0.88 2.8403252630495692 9.108017442201987 4.719436170767794 0 0 0
166 34 1 -0.351 2.3783507982516503 -0.46373037684223184 0.02263071424344987 0 0 0
169 34 4 0.21 2.454013243881985 -1.088817737556922 -0.8927722923768575 0 0 0
2459 492 4 0.21 -0.01875999266668371 -1.1384373802721237 3.0314846243948455 0 0 0
5667 1134 2 -0.88 -0.3211628248550189 6.363574521009024 7.7785521413389365 1 0 0
5666 1134 1 -0.351 0.5977609379833382 6.104354918403285 8.985498818820828 1 0 0
62 13 2 -0.88 -1.2832445557509509 5.846581420086029 3.55103918196501 0 -1 0
1366 274 1 -0.351 2.4082160749952943 4.0400458090596505 2.952927894325987 0 0 1
5668 1134 3 0.811 0.21958412659329118 5.615512146307967 6.358111841718453 1 0 0
63 13 3 0.811 -1.6743799809298658 4.303584557988913 3.0833827947105283 0 -1 0
10 2 5 0.21 3.707359169927933 5.965899870031997 7.918341943333835 0 0 0
5179 1036 4 0.21 -0.3927142039025837 9.992294751138047 2.757320169274358 1 0 0
2546 510 1 -0.351 -0.5301572906607972 1.5978056884898453 4.896008715936504 1 0 0
2472 495 2 -0.88 1.358170540222443 7.53367337463161 -1.1688216013560737 0 0 1
2550 510 5 0.21 -0.42986877199674134 0.838457565374219 4.091296177821309 1 0 0
3033 607 3 0.811 0.0865016769386231 -1.5546418921652276 6.390095356549211 0 0 0
4985 997 5 0.21 -1.8656927214093204 1.70913401943058 0.28440923947887015 1 0 0
2473 495 3 0.811 -0.155182306510099 8.23814875375852 -0.9819314351548357 0 0 1
4984 997 4 0.21 -0.7965985847425159 0.3869104687565792 0.9106489787621005 1 0 0
1370 274 5 0.21 3.1970783711185002 3.4941583510352 2.3648227048127084 0 0 1
2549 510 4 0.21 0.3918580945708485 1.9603859885875008 5.431511509624352 1 0 0
4202 841 2 -0.88 1.4524151527943951 1.0184098474481686 8.68460954028562 0 0 0
170 34 5 0.21 1.5871016450359656 -0.6770755150297507 0.6940091968525045 0 0 0
2475 495 5 0.21 2.4211138601218622 8.8675966251414 0.3518837650377609 0 0 1
2474 495 4 0.21 2.821277964570838 7.079413013200462 0.7376933442442053 0 0 1
5669 1134 4 0.21 0.6956034442857635 5.062280961488964 9.146419039742389 1 0 0
3031 607 1 -0.351 -1.7155366040891111 -1.857632871716107 8.147346281986312 0 0 0
998 200 3 0.811 2.8688707623862926 9.73907081365586 7.96426587039606 0 0 0
334 67 4 0.21 2.0788354193274707 1.1098247835082353 4.554623625292448 0 0 0
61 13 1 -0.351 -1.0060629940872268 6.938128900590714 2.631810541553471 0 -1 0
65 13 5 0.21 -1.1155048093240951 7.9323757537030755 3.0020288504825823 0 -1 0
1367 274 2 -0.88 2.7646796576718766 4.705009298847273 4.305889976595796 0 0 1
3303 661 3 0.811 0.43844573948609034 4.443024181121318 -0.3014319563883072 1 0 0
2093 419 3 0.811 1.9179150171142383 7.949727114169217 3.9682671371740463 0 0 0
4203 841 3 0.811 2.9421715482823516 1.5120343718986176 8.196349516887553 0 0 0
64 13 4 0.21 -0.8374183841817666 6.74013638148349 1.5762454921112525 0 -1 0
331 67 1 -0.351 2.409076379625216 0.15243919972790332 4.098247852427158 0 0 0
1468 294 3 0.811 -1.5264970067260775 9.406604228576645 7.592181168992805 0 0 1
335 67 5 0.21 2.397416764469838 0.006167370163238317 3.0149092605001266 0 0 0
4981 997 1 -0.351 -1.776931311620124 0.7297941588257517 0.7657941371256475 1 0 0
3035 607 5 0.21 -1.267153923042979 -1.1028985712010542 8.822559353160809 0 0 0
4462 893 2 -0.88 4.037689367103553 4.6073846003947505 -0.8308049280033182 1 0 0
2460 492 5 0.21 -1.3068909424672714 -1.834408391792403 2.0969561245498713 0 0 0
1469 294 4 0.21 -1.8031745436615094 8.172772465293578 4.965986666436893 0 0 1
3301 661 1 -0.351 -2.0317228708010684 4.615955939068817 -1.5590962897166702 1 0 0
2456 492 1 -0.351 -0.5897668401499132 -2.0857503817390395 2.907449012689658 0 0 0
606 122 1 -0.351 -0.43705141453711027 3.7374102586820626 18.979813762528977 0 0 0
5191 1039 1 -0.351 3.475997548051344 8.764439148395798 18.18884253885326 1 0 0
6634 1327 4 0.21 2.8944160427341665 -0.30608741161939457 11.388181339615864 1 1 0
6560 1312 5 0.21 3.2871774231649487 -0.8259102176966968 21.89870750988166 1 1 -1
6108 1222 3 0.811 3.47122816794067 4.106405351710356 15.811432777274543 1 0 0
5194 1039 4 0.21 2.931856722922643 9.63754463282664 18.566605771001083 1 0 0
6635 1327 5 0.21 2.392490193517314 -1.3298042864860817 12.891308927153723 1 1 0
1448 290 3 0.811 -1.7014444034012048 2.281478656475182 22.415008647894542 0 0 0
527 106 2 -0.88 2.1049343114164993 -1.1070887138776246 15.715528841131494 0 1 0
1130 226 5 0.21 -0.8320081642207899 7.61969624277782 14.394064972605157 0 1 0
530 106 5 0.21 3.491524933662834 -1.7036112604226887 17.31092657897607 0 1 0
1119 224 4 0.21 2.3457558776547116 7.755811581402956 14.853963489269239 0 0 0
6167 1234 2 -0.88 3.596848689592283 3.706817699233748 21.941287714202566 1 0 0
2142 429 2 -0.88 1.764168738700429 3.6248056864327665 12.894173436535839 0 0 1
6107 1222 2 -0.88 2.7411701510329762 3.74084449159611 17.22377327297616 1 0 0
6168 1234 3 0.811 1.9838324314474085 3.6290317578479736 21.44352666442149 1 0 0
1885 377 5 0.21 0.33405039516341484 7.646806668336623 21.545970082482736 0 0 0
1881 377 1 -0.351 1.1643045582483396 7.4908642862626635 22.244597246037358 0 0 0
5193 1039 3 0.811 1.908844228120643 6.662506763896809 18.735168177686024 1 0 0
832 167 2 -0.88 -1.0370331561149737 8.538861778447451 18.35282935761327 1 0 0
610 122 5 0.21 -0.8566470775298065 2.724561838197381 19.000176631517146 0 0 0
6631 1327 1 -0.351 2.5279096629142512 -1.3071971484304852 11.801573996229445 1 1 0
2141 429 1 -0.351 2.642753342204586 2.9955866451126965 11.796681722995999 0 0 1
1117 224 2 -0.88 2.4944957756297828 7.755253648668594 12.55006179735874 0 0 0
1129 226 4 0.21 -0.20879897826075555 6.344667020921451 15.773973361428872 0 1 0
607 122 2 -0.88 -0.7224864491826251 4.691515086622122 20.16960897843431 0 0 0
850 170 5 0.21 0.7277052568049647 1.0075534642336526 20.60645342494713 0 1 0
1118 224 3 0.811 2.5781757913504353 9.329429188516782 12.016007413175208 0 0 0
5192 1039 2 -0.88 2.545173929298772 7.623926994747011 17.591224783450198 1 0 0
2143 429 3 0.811 0.817368745743118 4.92243743071873 12.432684282143228 0 0 1
833 167 3 0.811 -0.11046412091694591 9.904267870633971 17.978252651203835 1 0 0
1126 226 1 -0.351 -0.9053577521219667 6.6414185316579815 14.934238557513527 0 1 0
2145 429 5 0.21 3.618471769889988 2.4979952245187467 12.159950022872534 0 0 1
528 106 3 0.811 0.5466407031871894 -0.6140083523117401 15.524357995224399 0 1 0
849 170 4 0.21 1.2443533245519776 -0.5680381587144967 19.710821064172173 0 1 0
6106 1222 1 -0.351 2.8050141840620815 2.2707963127142103 17.788668528194883 1 0 0
847 170 2 -0.88 -1.0447241668879874 -0.28246725581558496 20.245185000732643 0 1 0
858 172 3 0.811 -0.5725021877945811 0.23041655207818668 11.472159081342289 0 0 0
6110 1222 5 0.21 2.611287158107538 1.4137252817385293 17.174617535422104 1 0 0
1116 224 1 -0.351 2.9983813952177 7.5274053232092335 14.020888890941704 0 0 0
5858 1172 3 0.811 -0.6483308410595607 3.1240868369277677 15.69153199069614 1 1 0
848 170 3 0.811 -2.039093946876791 -0.34984444857990926 18.92494654304817 0 1 0
846 170 1 -0.351 0.3879066754589604 0.16415289526747534 19.95954395551153 0 1 0
526 106 1 -0.351 2.444454301177195 -1.7720277413115344 16.979658107986765 0 1 0
2144 429 4 0.21 2.133624619543292 2.3291052161421617 11.124475677519381 0 0 1
6559 1312 4 0.21 1.442467256678286 -0.9713885331704357 22.141023015180696 1 1 -1
857 172 2 -0.88 -1.350125316821443 -0.8341958948101638 12.506683001544417 0 0 0
5780 1156 5 0.21 0.481511734190752 9.391215463544 14.431121154683535 1 0 0
6109 1222 4 0.21 2.264087950128014 2.133993051081705 18.736824055715157 1 0 0
1884 377 4 0.21 1.9246616088552773 6.730349847547142 22.1395209530782 0 0 0
6556 1312 1 -0.351 2.449530794100967 -1.497530676026396 22.19401053359359 1 1 -1
388 78 3 0.811 -2.002321475486852 7.800781064927614 11.16018451499188 0 1 0
609 122 4 0.21 0.5119691148587622 3.9983040061830297 18.36181303682796 0 0 0
5857 1172 2 -0.88 -1.7511126909391366 1.89408602092929 15.804064568798843 1 1 0
1127 226 2 -0.88 -1.7747817168372668 5.711409412617527 14.129573922782054 0 1 0
638 128 3 0.811 -1.388236645839529 10.068768632840964 22.27748528552306 0 0 0
608 122 3 0.811 -2.027054770295165 5.635445472814821 20.39037370070548 0 0 0
1120 224 5 0.21 4.045589948734129 7.259244588504908 14.161424767333745 0 0 0
1298 260 3 0.811 -1.6073925104624567 -1.996657549602132 22.934545598522337 0 0 0
2305 461 5 0.21 1.3108953842108453 2.6910213334532025 33.433682457684306 0 1 0
3211 643 1 -0.351 -1.934986164821602 9.613777786775021 30.284074103986494 0 0 0
5806 1162 1 -0.351 2.625492157759331 8.568604987074782 33.851182211547396 1 0 0
4474 895 4 0.21 -0.09829368039267039 6.353956841587719 28.07914471963491 1 0 0
916 184 1 -0.351 2.988554327230107 5.632037344583164 31.98000319924337 0 1 0
3468 694 3 0.811 1.3196225486341633 3.488341614086337 29.667751562173738 0 1 -1
3467 694 2 -0.88 -0.09898101566491024 2.715947529815755 30.071060924141005 0 1 -1
317 64 2 -0.88 2.9812302839768177 8.178449133799484 27.98277550751683 0 0 0
3466 694 1 -0.351 -1.1888877435755936 3.4497819167844423 30.757926002459445 0 1 -1
5570 1114 5 0.21 -0.5952718306615721 -0.7651662791564089 26.932070641096036 1 0 0
5807 1162 2 -0.88 3.838030796224984 8.984259182587397 34.54028927574712 1 0 0
1882 377 2 -0.88 1.0281813104643387 8.285113790449095 23.564669756826618 0 0 0
4849 970 4 0.21 0.6691347086779675 4.602442873281074 34.36264187059758 1 0 -1
3215 643 5 0.21 -1.6985558682141608 9.211486435708172 31.240516400994924 0 0 0
5490 1098 5 0.21 -1.8098240607627465 -1.0114717048918016 33.42461332536445 1 0 0
3126 626 1 -0.351 3.564911281646236 4.379814981253762 25.709895209911597 0 0 1
5488 1098 3 0.811 0.7400987532138381 -0.28268915362259217 31.363606534780626 1 0 0
3127 626 2 -0.88 2.7125566294662096 3.4078213609440424 26.574305138768946 0 0 1
3469 694 4 0.21 -1.3145247855200002 3.2583238005782573 31.815733292199887 0 1 -1
1447 290 2 -0.88 -0.5865340483068031 2.6997944243529255 23.58540350271061 0 0 0
1449 290 4 0.21 -1.138004985282366 4.669870577206758 24.762645029283284 0 0 0
5487 1098 2 -0.88 0.20939794305249837 -0.2603483497452026 32.895759096973514 1 0 0
316 64 1 -0.351 3.6891444264420046 9.503786340287846 28.24374074026195 0 0 0
3510 702 5 0.21 -0.5677337235923245 7.743419027167256 32.640920166647334 0 1 0
3506 702 1 -0.351 -1.3597748585287195 6.927044828833113 32.88615983615042 0 1 0
1446 290 1 -0.351 -0.5019855480058171 4.270601098371163 23.907401816312202 0 0 0
5486 1098 1 -0.351 -0.8044467053286186 -1.3465156236420834 33.17597033086699 1 0 0
1022 205 2 -0.88 3.8131900859371943 0.26902888345113984 30.483759468622917 0 1 0
2302 461 2 -0.88 3.4249791444856608 2.920852007013426 34.23953503852298 0 1 0
1025 205 5 0.21 3.448331973303081 1.2801563648797205 28.492710069144735 0 1 0
2301 461 1 -0.351 2.3004095448253756 2.3643347376801613 33.26686723380108 0 1 0
4471 895 1 -0.351 -0.5799220201484985 5.767608135355722 27.271782954404237 1 0 0
919 184 4 0.21 2.9435796945152295 5.075818393268012 33.02809013669601 0 1 0
2304 461 4 0.21 2.632336503375637 1.9712529003946808 32.29824560758554 0 1 0
5566 1114 1 -0.351 0.23310472347037825 -0.834085727119233 26.158824623241227 1 0 0
3130 626 5 0.21 3.0765555833384073 5.312266447847209 25.429220445827905 0 0 1
5569 1114 4 0.21 -0.04066879528488698 -1.2113356502733343 25.18953633083137 1 0 0
5567 1114 2 -0.88 1.7287272623988712 -1.0999613897108984 26.48625659857168 1 0 0
1883 377 3 0.811 1.374824988044471 7.470203403687844 24.930050761572478 0 0 0
920 184 5 0.21 1.9572754163182506 5.79917672084281 31.584203946591266 0 1 0
3213 643 3 0.811 0.2382801656739315 9.728553713932127 28.84986958566759 0 0 0
5568 1114 3 0.811 2.2923649916432303 -1.345852909177511 28.048115454685753 1 0 0
4475 895 5 0.21 -0.04769578856013856 4.789318954087532 26.889506347574404 1 0 0
3509 702 4 0.21 -1.0596399216065906 5.994598414425909 32.528151501464926 0 1 0
1450 290 5 0.21 -0.37344416104950073 4.97914491774309 23.0226624721067 0 0 0
5810 1162 5 0.21 2.3238132508704337 7.509915490732213 34.03118844646753 1 0 0
3992 799 2 -0.88 3.690418655655446 -2.0125508054177255 34.44413023279145 0 0 0
3212 643 2 -0.88 -1.2028531031948209 9.06282493373896 29.072989762493066 0 0 0
3128 626 3 0.811 1.8501588485859943 2.213387318196498 25.886614995578956 0 0 1
5809 1162 4 0.21 2.4474152668931457 8.938940029096575 32.79632447808968 1 0 0
318 64 3 0.811 3.919348373178273 6.826085352958383 28.09557113233137 0 0 0
5811 1163 1 -0.351 -0.6433651798414752 8.81917446754024 40.8594241851937 1 0 0
763 153 3 0.811 -0.1242221735934641 8.737017389237057 36.31469123203304 0 0 0
5096 1020 1 -0.351 2.7862637433403346 0.3223961970738114 42.679772643843854 1 0 0
2358 472 3 0.811 2.9334619928554697 3.463080952432453 41.25612698661249 0 1 0
4300 860 5 0.21 -1.7558490790851669 -1.3068484575254704 35.85572513609254 1 0 -1
5815 1163 5 0.21 -0.1609383969842515 8.626798428617732 39.860219580315395 1 0 0
2411 483 1 -0.351 2.055550506814281 0.6370843350927995 38.614907696068926 0 1 0
6460 1292 5 0.21 0.06365282777364412 5.812588410831241 44.076876550813246 1 1 -1
4297 860 2 -0.88 -1.9796190628984718 -0.9693143677291294 37.95900087093944 1 0 -1
2415 483 5 0.21 2.165644729118737 0.7939798758457179 39.71731420845182 0 1 0
3993 799 3 0.811 2.4060476383082112 -1.3186784808141638 35.15476056628658 0 0 0
2357 472 2 -0.88 4.003650613866107 4.722228950968061 40.732549690148474 0 1 0
6252 1251 2 -0.88 3.222292431104498 8.646057298837436 38.918117959532466 1 0 0
4847 970 2 -0.88 1.7745092860846778 5.195502572130467 36.3976183641015 1 0 -1
4848 970 3 0.811 2.1633251394637933 3.693204079415598 37.038317132580886 1 0 -1
1263 253 3 0.811 3.5806973550373997 6.778201042620893 43.17408311394741 0 0 0
6575 1315 5 0.21 -1.21406130066045 8.061296504323181 44.02892363477439 1 1 0
6571 1315 1 -0.351 -1.5659321681684015 8.506208197361788 44.96856078011646 1 1 0
6456 1292 1 -0.351 0.726577194523971 5.520951724957094 44.91699976815262 1 1 -1
5097 1020 2 -0.88 3.9035650046812225 0.2389143674379932 41.668698615090726 1 0 0
5099 1020 4 0.21 1.926677541874565 -0.30414000790674556 42.422531598514155 1 0 0
5814 1163 4 0.21 -0.741087498345834 7.9698314948348195 41.561235660990214 1 0 0
4457 892 2 -0.88 -1.917701978111281 2.5424151327514477 36.3319242130496 1 0 -1
6458 1292 3 0.811 1.7805249863650499 3.05854066642125 45.432641539899585 1 1 -1
6253 1251 3 0.811 2.725488917069305 7.021979571364291 38.92421090225653 1 0 0
5548 1110 3 0.811 -1.3533063030347048 2.254717890642828 39.780857170691434 1 0 0
5547 1110 2 -0.88 -0.21186860568032628 3.340292655074211 40.180496075340805 1 0 0
5546 1110 1 -0.351 -0.4108477771115573 4.109410950198091 41.47307648224161 1 0 0
2414 483 4 0.21 1.0419066447319159 0.2504544206026864 38.32949471920845 0 1 0
4458 892 3 0.811 -0.9834337049597686 1.5575931632639382 35.42888364471626 1 0 -1
6459 1292 4 0.21 1.0681136748014395 6.378388720789957 45.626497727561876 1 1 -1
383 77 3 0.811 -0.8565603550779668 -0.33674821506653374 46.66751398542448 0 1 0
5100 1020 5 0.21 2.66174536521457 1.2749502533875763 43.25454199180431 1 0 0
4296 860 1 -0.351 -1.3754386882136962 -1.611246991963982 36.777225560971424 1 0 -1
385 77 5 0.21 -0.9732791150324469 0.30408330980597054 43.32239412245266 0 1 0
5808 1162 3 0.811 3.813774390907779 9.957809333128232 35.85486317122337 1 0 0
2412 483 2 -0.88 3.2197950528600434 0.7517068990512876 37.62085693431285 0 1 0
5549 1110 4 0.21 -1.3208433897537835 3.879277241704329 42.07985637403949 1 0 0
381 77 1 -0.351 -0.5734101456679987 0.8344908622655174 44.186296701520064 0 1 0
6457 1292 2 -0.88 1.6709899881419092 4.449745619576689 44.543842635834494 1 1 -1
384 77 4 0.21 -0.45308775005197965 1.9631205068685547 44.21186275020319 0 1 0
4846 970 1 -0.351 0.6794685355332293 5.080136668615259 35.41146603527611 1 0 -1
382 77 2 -0.88 0.10264985337135846 0.003613029752999264 45.32271321712202 0 1 0
5550 1110 5 0.21 0.42796799739125957 4.52878595067787 42.118784597081756 1 0 0
6574 1315 4 0.21 -1.9339076997004154 7.7552905238075525 45.70590151216173 1 1 0
5812 1163 2 -0.88 -1.5673144123763747 9.983120742169842 41.10752363450687 1 0 0
4850 970 5 0.21 0.004171519873442886 5.945076384207672 35.28213085802401 1 0 -1
4463 893 3 0.811 4.016187928685193 5.600078587188923 47.01406982141734 1 0 -1
6572 1315 2 -0.88 -0.9949656669315452 9.921919855992465 45.42854254106623 1 1 0
2998 600 3 0.811 2.8453859792738423 -1.8415857404208875 45.310528491936395 0 1 -1
4888 978 3 0.811 -2.070011826780083 5.895584935826156 37.62393987689141 1 0 0
2255 451 5 0.21 0.7172422997463799 -1.7755102721313165 42.250171784027565 0 1 0
765 153 5 0.21 -1.8653487043323427 10.200466661135538 38.454615072221806 0 0 0
2188 438 3 0.811 2.513288966782976 20.69017614020661 2.9378881821091176 0 0 1
1926 386 1 -0.351 0.9561737369652987 12.540743695037914 9.29606876304132 0 0 0
6433 1287 3 0.811 -0.4199256682479793 18.3747352892469 8.664446400494523 1 0 1
728 146 3 0.811 1.5634721165506096 21.035531007026062 -1.0160416845891123 0 0 0
3229 646 4 0.21 -0.6341547395420841 21.323840792057517 2.836610474673226 0 0 1
5180 1036 5 0.21 0.8024691060625306 11.020471982822382 2.0505847984441736 1 0 0
5083 1017 3 0.811 2.8433346376525352 20.683567288796088 6.828772707616867 1 0 0
3226 646 1 -0.351 -0.9906233512483051 20.297474577912876 2.6378473708692174 0 0 1
5051 1011 1 -0.351 1.2238015285662591 16.000744620793554 -2.0468308097650225 1 0 1
1439 288 4 0.21 -1.4300454264198748 11.878064639346972 4.954935683115078 0 0 0
5081 1017 1 -0.351 0.33720404879486887 21.564554476513322 6.143398886542141 1 0 0
727 146 2 -0.88 1.4056449220129328 19.678923190320887 -1.9719757214867075 0 0 0
1391 279 1 -0.351 0.6926009769520687 17.514525309412697 4.158576196666234 0 0 0
5082 1017 2 -0.88 1.3424765480702328 20.425832623722506 6.258611344631004 1 0 0
3227 646 2 -0.88 -0.6935978580725195 19.968596709378122 1.1391558831831856 0 0 1
5085 1017 5 0.21 -0.6624998043824901 21.519895144910098 6.7107358561402695 1 0 0
1393 279 3 0.811 2.0267941215506897 15.208683985856343 3.5226420798997435 0 0 0
1929 386 4 0.21 0.6650014076310407 13.584697657485131 9.345372775597864 0 0 0
1394 279 4 0.21 0.9832342437550685 18.354969524982426 4.795346590897269 0 0 0
5177 1036 2 -0.88 -1.0675635158572823 11.389821012991685 1.0971132556719132 1 0 0
2091 419 1 -0.351 2.2933152190301276 10.541210314446397 4.64918326638687 0 0 0
6453 1291 3 0.811 3.624997244670942 16.189364181451086 6.873527597443144 1 0 0
2094 419 4 0.21 1.225774164934046 10.80780442967036 4.9136302009304735 0 0 0
1392 279 2 -0.88 1.7062782532514928 16.776319750307614 3.248797214006021 0 0 0
5052 1011 2 -0.88 0.984637223219107 15.358978591942375 -0.679467841795009 1 0 1
5084 1017 4 0.21 0.0659687528758357 22.02356555189885 5.208882709946299 1 0 0
1440 288 5 0.21 -0.3941199604373917 12.47726312646131 3.4551552701333343 0 0 0
1395 279 5 0.21 -0.30434105085698016 16.971990634096525 4.228069411142696 0 0 0
5176 1036 1 -0.351 -0.11336237746908506 10.479376805956395 1.820925088212373 1 0 0
105 21 5 0.21 -1.7956899768188925 19.567673261787323 6.599394474409165 0 0 0
3228 646 3 0.811 -0.4940411437800867 18.363833272539658 0.865682444173173 0 0 1
2095 419 5 0.21 2.969723132619914 11.38228871868262 4.821965215463992 0 0 0
6452 1291 2 -0.88 2.2652100553637564 16.07766988537388 7.83937789706824 1 0 0
1438 288 3 0.811 -0.45425822781361025 14.393215825750161 6.597513973017115 0 0 0
6454 1291 4 0.21 2.0291164386859717 16.63261175056005 9.96825994649924 1 0 0
5053 1011 3 0.811 1.2338319894973186 13.745933131085128 -0.45684856475988433 1 0 1
1005 201 5 0.21 3.630103949780731 10.99589410002387 2.40413470246804 0 0 0
1436 288 1 -0.351 -0.9059802867258901 12.66919106262007 4.4371155824690405 0 0 0
1437 288 2 -0.88 -0.9572109290532844 14.102375051492402 5.026324433392799 0 0 0
1930 386 5 0.21 1.982830319426585 12.368074869555883 8.897617193057906 0 0 0
6451 1291 1 -0.351 2.4455843699900606 15.952819618329436 9.286562198030127 1 0 0
6455 1291 5 0.21 2.7158064742865737 14.956432571923663 9.542746635696913 1 0 0
3230 646 5 0.21 -0.9062672934531282 19.50049990525167 3.443025936350919 0 0 1
1927 386 2 -0.88 0.209915705262687 11.380998466259232 9.868221061255563 0 0 0
2187 438 2 -0.88 3.5002729628903846 21.194436682050426 1.7383314139279469 0 0 1
158 32 3 0.811 3.3787367266444694 17.470554741369952 0.3968654609888345 0 0 1
4107 822 2 -0.88 -1.8358977555321663 20.411883983423724 15.563934726693496 1 0 0
6054 1211 4 0.21 2.1655523673784676 12.257666339191774 11.876982753134563 1 -1 0
1679 336 4 0.21 0.2558846821620713 17.189923868997553 19.178732846050377 0 0 0
6055 1211 5 0.21 2.2721676464629055 13.496002188353343 13.115780342998027 1 -1 0
68 14 3 0.811 0.6991451949083043 13.645839259549435 19.84808006927827 0 0 0
1678 336 3 0.811 -1.6318748407601404 15.965076648040274 16.522290767339445 0 0 0
6431 1287 1 -0.351 0.5417304144893991 18.79739009603002 11.200035329571833 1 0 1
5777 1156 2 -0.88 -1.448787733599628 10.365826310863103 13.752179867091483 1 0 0
2934 587 4 0.21 1.8012844081801878 13.400046117567058 15.153432594607148 1 1 0
4679 936 4 0.21 -1.4995945312504884 13.407833366668722 18.247367978269285 1 0 0
5604 1121 4 0.21 3.474760194526231 15.45845402114486 18.667946566998694 1 0 0
2935 587 5 0.21 1.2245887747509414 13.83919378315387 16.844194336471844 1 1 0
6435 1287 5 0.21 1.1387539178415356 17.984314742452234 11.541531449098214 1 0 1
4920 984 5 0.21 2.4446391994892456 18.247547272971527 14.215475224785346 0 0 0
4916 984 1 -0.351 2.410100050832932 17.125607539670515 14.22753806481507 0 0 0
5225 1045 5 0.21 -1.0746727033787942 19.3849182798145 22.21183321972174 1 0 1
5224 1045 4 0.21 -0.17736711928777238 18.885159810469542 20.551128837705054 1 0 1
1680 336 5 0.21 0.9535009538853254 17.46896074079461 17.359941847311763 0 0 0
5072 1015 2 -0.88 -1.4775567140314374 14.464576489824733 12.394442208677027 1 0 0
5779 1156 4 0.21 0.021918588979318532 11.268055571860467 15.087211295181218 1 0 0
4917 984 2 -0.88 2.9812672358709054 16.37826513306609 12.946736533147618 0 0 0
4033 807 3 0.811 2.603121695676752 20.597614019761533 17.90279477823961 1 0 0
4032 807 2 -0.88 3.1493101344432044 19.04466861136762 18.070763917616173 1 0 0
5074 1015 4 0.21 -1.34638187008117 12.807332735927337 13.944163304678044 1 0 0
1677 336 2 -0.88 -0.5157265130087063 15.847385096105452 17.77688063889912 0 0 0
67 14 2 -0.88 0.4949010212949596 12.474712391808623 20.93744777870672 0 0 0
2932 587 2 -0.88 2.363287484446928 11.90190793984861 16.682927368247306 1 1 0
6621 1325 1 -0.351 1.5266416570933918 21.832648905837804 14.446820909212972 1 0 0
4106 822 1 -0.351 -1.6483931418392979 19.14227426784983 14.814652273601203 1 0 0
70 14 5 0.21 1.696136849225062 10.592674340980713 21.716520527418012 0 0 0
6434 1287 4 0.21 0.5916077382587015 19.545859676104996 12.011132554659621 1 0 1
2933 587 3 0.811 3.5801801219654092 11.140700239932803 15.767238950939483 1 1 0
5605 1121 5 0.21 3.8534371533194665 16.268752727958212 20.225035963352152 1 0 0
1676 336 1 -0.351 0.2481585980596015 17.045447785732136 18.0413534150613 0 0 0
6432 1287 2 -0.88 -0.664631165036726 18.381971497888152 10.358220641747335 1 0 1
5221 1045 1 -0.351 -1.0867958791988659 19.229970297598587 21.150818735504657 1 0 1
1861 373 1 -0.351 0.9667952318997655 16.66415826205098 22.20407664576807 0 -1 0
5776 1156 1 -0.351 -0.06500390669446743 10.385139080074495 14.419753545145385 1 0 0
2931 587 1 -0.351 2.0479389549990237 13.353070187057936 16.246055670306315 1 1 0
69 14 4 0.21 2.326775948315896 12.293561290757948 22.238196246713855 0 0 0
5933 1187 3 0.811 1.9440011498867862 22.269270179286043 10.667111629942351 1 0 1
66 14 1 -0.351 1.7249680468130366 11.707294439198884 21.533278363860603 0 0 0
5071 1015 1 -0.351 -1.7861535160155424 13.8054007551877 13.687446697671351 1 0 0
6051 1211 1 -0.351 2.804298591318974 12.655141628643253 12.623011857407079 1 -1 0
1928 386 3 0.811 -1.1058592944726584 11.582677897324341 10.873648140667683 0 0 0
4919 984 4 0.21 1.963219358671195 16.55968408057146 15.130623039474358 0 0 0
4109 822 4 0.21 -0.6705699469584772 18.94552517422145 14.343295546054332 1 0 0
5073 1015 3 0.811 -0.18292318929604612 15.477888542091502 12.423794410558965 1 0 0
2024 405 4 0.21 1.4768060421878708 20.353498897027958 21.622483550409978 0 0 0
2240 448 5 0.21 -1.717643007393652 14.559109370382728 20.93392972740326 0 0 1
1864 373 4 0.21 0.670978738754965 16.213422209871013 21.175078110168812 0 -1 0
5759 1152 4 0.21 -0.333947910636911 22.29725626526806 17.308026202492194 1 0 0
6622 1325 2 -0.88 2.9125669309602364 21.68759860886022 13.844049711626404 1 0 0
4035 807 5 0.21 3.9684902929763264 18.203425552702523 16.17608150197734 1 0 0
6624 1325 4 0.21 0.5139989608324957 21.913604694386326 13.920999185460836 1 0 0
1865 373 5 0.21 0.48376227853105025 17.602825806770685 22.486814249594563 0 -1 0
2322 465 2 -0.88 -1.399161709631982 12.89994984242255 25.329434809224853 0 0 0
2323 465 3 0.811 -1.075029610779994 13.689677354655139 23.8848763954409 0 0 0
4575 915 5 0.21 -1.2725917958388027 14.921636878367117 31.426405316218936 1 0 0
2321 465 1 -0.351 -0.4458945887459831 11.806697764710803 25.731453976950224 0 0 0
1214 243 4 0.21 3.967236235571819 11.83948325394315 32.304287409376975 0 0 -1
340 68 5 0.21 0.9225864272701849 21.94459652787624 29.237395176375337 0 0 0
2324 465 4 0.21 -0.5258756017507715 10.777602064636216 25.302517350616316 0 0 0
3311 663 1 -0.351 -0.3078758072824501 20.238716263014094 26.733465127163416 0 0 -1
2737 548 2 -0.88 3.1970680346122236 17.510062670519897 27.309459247466545 0 1 0
3314 663 4 0.21 0.43820278918295275 21.01300964549232 27.034105158092988 0 0 -1
4571 915 1 -0.351 -0.446410956360074 15.070407062833755 32.111275066931796 1 0 0
5682 1137 2 -0.88 -0.9809928604868905 16.737948626929477 28.387341408681376 1 0 0
2025 405 5 0.21 1.574677436966439 20.656432695355907 23.61836445408778 0 0 0
339 68 4 0.21 -0.4032889752607187 20.899061757740782 30.286144593486174 0 0 0
5076 1016 1 -0.351 3.149659776299838 16.629430941898946 32.963062035796135 1 0 0
2798 560 3 0.811 1.3791348487120265 14.60194187938211 27.11569376375177 0 0 0
5080 1016 5 0.21 2.1694716477967986 16.29199657736966 32.53218191156495 1 0 0
3315 663 5 0.21 -0.8594675957719133 19.613204431112838 27.451105956754635 0 0 -1
3738 748 3 0.811 3.184596969905343 11.311162169083957 25.14117309799145 1 0 1
106 22 1 -0.351 3.4971756374776555 21.446077729194812 34.61671684529487 0 0 0
320 64 5 0.21 3.1194831254198463 10.394408617690084 28.07219286548757 0 0 0
1862 373 2 -0.88 1.5027179892365514 15.778719916308678 23.359122806829305 0 -1 0
6347 1270 2 -0.88 -1.1361894679004485 20.49030704728974 33.815099865916316 2 0 0
336 68 1 -0.351 0.6276616704961264 21.137430546270878 30.043402916615015 0 0 0
3313 663 3 0.811 -0.22996141908872159 18.03653006637946 25.109888722518935 0 0 -1
2325 465 5 0.21 -0.030456286411110867 11.84206708499144 26.740313101640194 0 0 0
4572 915 2 -0.88 -0.20410728258593402 16.503482174225354 32.5941594682424 1 0 0
5079 1016 4 0.21 2.9828885518920303 16.87072410905706 34.03691935885951 1 0 0
338 68 3 0.811 1.4757273135886528 19.752097871649692 32.167009253697614 0 0 0
5845 1169 5 0.21 2.9769432598616787 22.27787741890953 28.79730293694213 1 0 0
1215 243 5 0.21 3.7862755180802607 13.621138687010466 33.06323585211378 0 0 -1
2796 560 1 -0.351 2.6444692160267356 13.036572841021911 28.97534066236281 0 0 0
605 121 5 0.21 3.3824045938823324 18.66602091386261 23.253378586450133 0 0 0
5683 1137 3 0.811 -0.007107219670765552 17.46377964550624 29.499360271854187 1 0 0
4574 915 4 0.21 0.2899853561123167 14.334917693319746 32.33040082662417 1 0 0
2800 560 5 0.21 2.7712063712359734 12.064537625582691 29.331918585528097 0 0 0
3312 663 2 -0.88 -0.057628869110250225 19.658967540597786 25.314946420728297 0 0 -1
2797 560 2 -0.88 1.5986372652204808 13.15606959554652 27.891149197920626 0 0 0
337 68 2 -0.88 1.8172450057742542 20.458332617201624 30.73171181464629 0 0 0
2738 548 3 0.811 2.8179552690935927 19.150363684309216 27.308325377687673 0 1 0
2021 405 1 -0.351 1.6344931725034648 20.997768200741135 22.534665942449013 0 0 0