LAMMPS data file via write_data, version 29 Aug 2024, timestep = 1000000, units = real

6174 atoms
18 atom types
5831 bonds
17 bond types
10290 angles
30 angle types
13720 dihedrals
40 dihedral types
3430 impropers
10 improper types

2.7867365913882196 42.21326340859521 xlo xhi
2.7867365913882196 42.21326340859521 ylo yhi
2.7867365913882196 42.21326340859521 zlo zhi

Masses

1 12.011
2 12.011
3 12.011
4 12.011
5 12.011
6 15.999
7 14.007
8 1.008
9 1.008
10 1.008
11 1.008
12 1.008
13 1.008
14 1.008
15 1.008
16 1.008
17 1.008
18 1.008

Pair Coeffs # lj/charmmfsw/coul/long

1 0.078 3.65268 0.01 3.38542
2 0.055999 3.58141 0.01 3.38542
3 0.055999 3.58141 0.01 3.38542
4 0.055999 3.58141 0.01 3.38542
5 0.11 3.56359 0.11 3.56359
6 0.12 3.02906 0.12 2.49452
7 0.2 3.29632 0.2 3.29632
8 0.024001 2.38761 0.024001 2.38761
9 0.024001 2.38761 0.024001 2.38761
10 0.024001 2.38761 0.024001 2.38761
11 0.035 2.38761 0.035 2.38761
12 0.035 2.38761 0.035 2.38761
13 0.035 2.38761 0.035 2.38761
14 0.035 2.38761 0.035 2.38761
15 0.035 2.38761 0.035 2.38761
16 0.035 2.38761 0.035 2.38761
17 0.045999 0.400014 0.045999 0.400014
18 0.045999 0.400014 0.045999 0.400014

Bond Coeffs # harmonic

1 222.5 1.528
2 222.5 1.53
3 222.5 1.53
4 250 1.49
5 620 1.23
6 430 1.36
7 322 1.111
8 322 1.111
9 322 1.111
10 309 1.111
11 309 1.111
12 309 1.111
13 309 1.111
14 309 1.111
15 309 1.111
16 480 1
17 480 1

Angle Coeffs # charmm

1 58 115 8 2.561
2 58.35 113.6 11.16 2.561
3 52 108 0 0
4 80 121 0 0
5 50 116.5 50 2.45
6 34.6 110.1 22.53 2.179
7 34.6 110.1 22.53 2.179
8 34.6 110.1 22.53 2.179
9 34.6 110.1 22.53 2.179
10 34.6 110.1 22.53 2.179
11 26.5 110.1 22.53 2.179
12 26.5 110.1 22.53 2.179
13 26.5 110.1 22.53 2.179
14 26.5 110.1 22.53 2.179
15 50 120 0 0
16 50 120 0 0
17 35.5 109 5.4 1.802
18 35.5 108.4 5.4 1.802
19 35.5 109 5.4 1.802
20 33 109.5 30 2.163
21 35.5 108.4 5.4 1.802
22 26.5 110.1 22.53 2.179
23 75 122.5 50 2.37
24 33 109.5 30 2.163
25 35.5 109 5.4 1.802
26 26.5 110.1 22.53 2.179
27 35.5 108.4 5.4 1.802
28 26.5 110.1 22.53 2.179
29 23 120 0 0
30 26.5 110.1 22.53 2.179

Dihedral Coeffs # charmmfsw

1 0.15051 2 0 1
2 0.195 3 0 1
3 0.05 6 180 1
4 0.16 3 0 1
5 1.4 2 180 1
6 0.195 3 0 1
7 0.22 3 0 1
8 0.16 3 0 1
9 0.16 3 0 1
10 0.22 3 0 1
11 0.22 3 0 1
12 0 3 180 1
13 1.4 2 180 1
14 0.16 3 0 1
15 0.05 6 180 1
16 0.18 3 0 1
17 0.22 3 0 1
18 0.22 3 0 1
19 0.195 3 0 1
20 0.195 3 0 1
21 0.195 3 0 1
22 0.195 3 0 1
23 0.22 3 0 1
24 1.4 2 180 1
25 0.22 3 0 1
26 0.22 3 0 1
27 1.4 2 180 1
28 0.16 3 0 1
29 0.16 3 0 1
30 0.195 3 0 1
31 0.18 3 0 1
32 0.16 3 0 1
33 0 3 180 1
34 0.16 3 0 1
35 0.16 3 0 1
36 0 3 180 1
37 0 3 180 1
38 0.08133 3 180 0
39 0.10824 4 0 0
40 0.20391 5 0 0

Improper Coeffs # harmonic

1 120 0
2 0 0
3 0 0
4 0 0
5 0 0
6 0 0
7 0 0
8 0 0
9 0 0
10 0 0

Atoms # full

4253 237 5 0.546 6.608654466723717 9.361833002594022 10.716489997336119 0 0 0
4261 237 13 0.09 6.4899267765076605 10.150473848945357 8.047247390105097 0 0 0
4459 248 13 0.09 3.6457821498599174 4.370913291190702 9.702249360166284 1 0 0
4251 237 3 -0.19 5.941080724771572 9.208046618689384 8.212501832897267 0 0 0
4449 248 3 -0.19 4.300590103885594 5.221321192980968 9.415542385204699 1 0 0
4259 237 11 0.09 4.0316903353095155 8.348778916392098 7.390450378703959 0 0 0
4453 248 7 -0.621 5.3053170254027044 6.1662999059949035 12.312380341173348 1 0 0
4461 248 15 0.09 6.352267350680247 5.769125571800868 10.024994379383353 1 0 0
2006 112 8 0.09 6.377199966304676 6.780262509208848 3.6310227880918173 0 0 1
4457 248 11 0.09 5.395611112316708 6.016411552955999 7.782782655678445 1 0 0
4452 248 6 -0.538 4.863710324580022 4.006271732202003 12.289976572427502 1 0 0
4458 248 12 0.09 5.21048634440541 4.28865112592152 7.820152223584294 1 0 0
4450 248 4 -0.178 5.561264529974087 4.959464148532423 10.21841233756602 1 0 0
4250 237 2 -0.174 4.648285081227627 9.22571983363155 7.276019857787452 0 0 0
4260 237 12 0.09 4.034398916396981 10.047269999896685 7.666898423398572 0 0 0
4451 248 5 0.546 5.243795946198886 4.987245376638851 11.660113355180687 1 0 0
4463 248 17 0.309 5.806226342761883 6.9529496834233875 11.893490160996203 1 0 0
4252 237 4 -0.178 5.502632268623102 9.07146982548735 9.698279750811773 0 0 0
4264 237 16 0.09 4.622528534862657 9.669683056509776 10.003948032201524 0 0 0
5863 326 13 0.09 3.8583443085698894 11.218815108039419 11.527531507531076 1 1 0
4462 248 16 0.09 5.929814411237646 3.993321970659961 9.980242513344841 1 0 0
4257 237 9 0.09 5.657243055457654 10.273555116326799 5.774354416040241 0 0 0
4254 237 6 -0.538 7.146746965254979 8.477001898662735 11.405797841438094 0 0 0
1490 83 14 0.09 5.555101617593623 10.152656721994873 2.894399180802915 0 0 1
4256 237 8 0.09 5.670408212621811 8.5274170553415 5.286217541442012 0 0 0
4258 237 10 0.09 4.178606892661232 9.546287591086195 5.147621520960624 0 0 0
4249 237 1 -0.273 5.082959856463936 9.375003689425714 5.7392732578983106 0 0 0
4455 248 9 0.09 3.6180137578768643 5.499526733052489 6.10024444067954 1 0 0
2007 112 9 0.09 4.9425930942372 5.882962259830277 4.128099203668315 0 0 1
4262 237 14 0.09 6.577848541506432 8.332738864399296 7.8661921013408795 0 0 0
3212 179 8 0.09 7.464043852634838 6.276030255659317 7.870351339677933 0 0 0
4255 237 7 -0.621 6.951490946938437 10.669617336466697 10.840732088207947 0 0 0
4448 248 2 -0.174 4.64416047396586 5.188697359949318 7.958932516433944 1 0 0
4263 237 15 0.09 5.250177710472897 8.017299988431645 9.984863964366795 0 0 0
1491 83 15 0.09 3.1591836283370074 10.4973869157349 3.5972364397247185 0 0 1
1999 112 1 -0.273 5.626991921900794 6.052099357721577 3.2318896744005157 0 0 1
4460 248 14 0.09 3.826561069101903 6.235112869519821 9.647386663074855 1 0 0
4266 237 18 0.309 7.474278673361531 10.9462804522304 11.607447455243973 0 0 0
4265 237 17 0.309 6.576840157867519 11.340912895019509 10.227607991389782 0 0 0
4447 248 1 -0.273 3.3844185177688972 5.354693244980873 7.1087860817359845 1 0 0
2001 112 3 -0.19 7.367567827091759 4.265294455388063 3.9533257322411983 0 0 1
2011 112 13 0.09 6.6152110501876065 3.9671517016996365 4.778905802984794 0 0 1
6102 339 18 0.309 3.1242245096837946 2.831942793437937 11.221972745930163 1 0 1
4456 248 10 0.09 2.8739286831607225 6.280220142284316 7.399267118808706 1 0 0
5861 326 11 0.09 4.367802255664263 9.106085647223196 12.607870249085025 1 1 0
2130 119 6 -0.538 5.354891639925198 12.546298231813148 9.343097341083695 0 0 1
5853 326 3 -0.19 3.716135726484463 11.065911772516031 12.627460818389917 1 1 0
985 55 13 0.09 7.363350356166804 7.360686774617243 21.6566923497866 0 0 0
983 55 11 0.09 4.601095081131572 6.578298445549841 20.74333734086624 0 0 0
2728 152 10 0.09 5.40129725133761 10.08667820734641 15.735558502879682 0 0 0
5927 330 5 0.546 4.505889675189715 2.8656039618836098 15.970062404950188 1 1 0
830 47 2 -0.174 6.785342589872405 11.720230283089416 22.075210302026164 1 1 0
2706 151 6 -0.538 6.647778145878459 7.176209540420756 16.45452626476946 0 0 0
2732 152 14 0.09 3.0465301997172984 10.584668277586132 16.87661228289014 0 0 0
980 55 8 0.09 4.728981886292866 9.0830114678588 21.421199328608612 0 0 0
974 55 2 -0.174 5.168258290571313 6.9069721792686884 21.6759442463532 0 0 0
976 55 4 -0.178 7.235341863035394 5.414574877861815 20.878908868511417 0 0 0
5862 326 12 0.09 3.2991842489608496 9.423968159297694 14.039767005224107 1 1 0
2726 152 8 0.09 6.235232940965296 9.964508458717285 17.33581489696623 0 0 0
5936 330 14 0.09 4.132213828475863 4.934869632853976 14.546355510240165 1 1 0
5933 330 11 0.09 2.946515944479044 7.014384218158292 14.824282401573633 1 1 0
2705 151 5 0.546 7.474096910661594 6.901094319869823 15.556562428662758 0 0 0
990 55 18 0.309 5.91693016706541 4.086243129918106 18.057893071743468 0 0 0
979 55 7 -0.621 6.234318129313135 4.835902986000857 18.70674248949246 0 0 0
2727 152 9 0.09 6.813326645466881 11.138612754364594 16.16295935515311 0 0 0
977 55 5 0.546 6.50209262577933 4.460145101880832 20.01714256221179 0 0 0
984 55 12 0.09 5.256574789923168 6.0741734682230195 22.43174852097418 0 0 0
5938 330 16 0.09 3.7128409823098423 4.1744124064367565 17.461596136729433 1 1 0
987 55 15 0.09 7.409774338358586 4.8782306751858595 21.813455437517018 0 0 0
5926 330 4 -0.178 3.5582691978339827 3.954853552548558 16.381272279247554 1 1 0
2720 152 2 -0.174 4.828502238230902 11.675804838561918 17.052066531855502 0 0 0
4464 248 18 0.309 5.473155418088828 6.059698045479312 13.270633099623279 1 0 0
975 55 3 -0.19 6.634402846075272 6.837748593667838 21.01309592079188 0 0 0
2719 152 1 -0.273 5.8761239937141365 10.656859909526474 16.554553791277964 0 0 0
5852 326 2 -0.174 3.4146170147635635 9.60909072136604 12.926905732934973 1 1 0
989 55 17 0.309 6.39786343835155 5.730634867346961 18.36149576398727 0 0 0
5928 330 6 -0.538 5.676837757777241 3.170480315502188 15.92402047295315 1 1 0
986 55 14 0.09 6.497072719193655 7.281052626197208 20.05283839657414 0 0 0
5925 330 3 -0.19 3.9152326981927588 5.241279845606603 15.542407442800881 1 1 0
2731 152 13 0.09 3.7826701067307096 10.259514464148541 18.39328790855121 0 0 0
5924 330 2 -0.174 2.802854163439672 6.315457372273231 15.62813922476796 1 1 0
5864 326 14 0.09 4.657132954515287 11.352267504892435 13.160596971331675 1 1 0
5935 330 13 0.09 4.819047730503553 5.7232466482605755 15.886897335310547 1 1 0
973 55 1 -0.273 4.76291430814217 8.239128351359152 22.173576109695595 0 0 0
2721 152 3 -0.19 3.5545285997491947 11.101654196064986 17.657467783439024 0 0 0
2707 151 7 -0.621 7.28009033799104 5.8455573229940345 14.7473918740553 0 0 0
829 47 1 -0.273 7.020164460363508 11.300748824462687 20.61853094973508 1 1 0
306 17 18 0.309 7.116966593069884 3.350137705949657 12.843290253028677 0 0 0
2730 152 12 0.09 5.4273786414474765 12.463133153224023 17.62319106435016 0 0 0
2729 152 11 0.09 4.46353687769881 12.081749428690992 16.06728890496667 0 0 0
978 55 6 -0.538 6.17183257123372 3.332318452904839 20.367064627806037 0 0 0
3146 175 14 0.09 3.043399634253156 10.907705778613856 22.130013182054608 1 0 1
838 47 10 0.09 7.31542020703298 10.253348889243453 20.531924206084593 1 1 0
5932 330 10 0.09 3.7482339738572743 7.480203175239547 17.291588272905557 1 1 0
837 47 9 0.09 6.1647118732611785 11.51569671690446 19.903391867953953 1 1 0
2718 151 18 0.309 6.696223024363929 5.1040277029433945 14.986497857988208 0 0 0
840 47 12 0.09 5.878347275756493 11.198376016110876 22.43871870735685 1 1 0
5293 295 1 -0.273 3.1074424346899727 2.895840004679156 29.236675871321342 1 0 -1
3483 194 9 0.09 6.17686369988942 5.419348438463992 24.398481523205586 1 0 -1
839 47 11 0.09 7.624687942543353 11.32682409754814 22.75244888709066 1 1 0
2251 126 1 -0.273 6.408183028065965 11.22777961434391 31.29909247931669 0 0 0
2252 126 2 -0.174 6.745747368872799 9.730307716127838 31.263827523859618 0 0 0
604 34 10 0.09 6.353632092415149 8.674210884856347 27.955491680826043 -1 0 0
5717 318 11 0.09 3.1239286567200195 9.309862835914805 28.549977574745025 1 1 -1
5673 316 3 -0.19 6.234926512339939 5.622430602445151 31.893781900410566 1 0 0
5678 316 8 0.09 5.088180825367793 5.408232455955863 29.137001586067825 1 0 0
5716 318 10 0.09 4.228333295764989 11.811237374628138 28.780151178269463 1 1 -1
5714 318 8 0.09 5.195505770705722 11.324239427134632 27.340747404507667 1 1 -1
2258 126 8 0.09 6.8159176893126885 11.664894969132776 30.411696082691066 0 0 0
5679 316 9 0.09 6.615029304992163 5.875815412013896 28.333127443792723 1 0 0
5707 318 1 -0.273 4.562134702709569 10.850501151213317 28.186840464177642 1 1 -1
2261 126 11 0.09 6.112256572652742 9.10767773238714 30.597018312246956 0 0 0
3475 194 1 -0.273 5.926677521865734 4.395813424793277 24.720570525860445 1 0 -1
5715 318 9 0.09 5.257600827342776 10.33485754769856 28.876419849923295 1 1 -1
603 34 9 0.09 6.286605563710962 8.847554789930573 26.18171308597901 -1 0 0
5302 295 10 0.09 3.199774910834702 3.161600320958643 30.311047168648912 1 0 -1
3482 194 8 0.09 5.9816933831187535 4.47801512142305 25.793346744129426 1 0 -1
5671 316 1 -0.273 6.029497470348243 5.8835762089374555 29.30929119924097 1 0 0
3486 194 12 0.09 4.168402243268416 4.260142225234515 23.45348901632628 1 0 -1
602 34 8 0.09 6.583816971950454 7.352844777539197 26.843858998222956 -1 0 0
3484 194 10 0.09 6.56992314360598 3.5895233535837896 24.262877284738856 1 0 -1
5680 316 10 0.09 5.7227431876937835 6.994023172807043 29.552708914524455 1 0 0
3476 194 2 -0.174 4.437093272926311 4.062282839165824 24.49428781375419 1 0 -1
3477 194 3 -0.19 3.291827553802962 4.913763966200535 25.111322994764755 1 0 -1
5718 318 12 0.09 3.985182517455837 9.146983865215823 26.95842402940153 1 1 -1
5672 316 2 -0.174 6.725977871784328 5.232455315143217 30.48082624006242 1 0 0
5682 316 12 0.09 6.826446543706104 4.0845375767152365 30.497238806250675 1 0 0
3487 194 13 0.09 3.5504790480263195 6.010247470205033 24.93657515002513 1 0 -1
595 34 1 -0.273 6.839832605177002 8.42023930337287 26.99506540659766 -1 0 0
5708 318 2 -0.174 3.524320290654418 9.91015583990469 27.656438926056353 1 1 -1
5303 295 11 0.09 5.023312695527572 3.3983656762071304 28.494673171625845 1 0 -1
3485 194 11 0.09 4.193530472165136 2.9584262413021696 24.69417005220992 1 0 -1
5684 316 14 0.09 6.089320368857594 6.721930636664267 32.04304190399118 1 0 0
3488 194 14 0.09 3.362967462005608 4.789317696940123 26.18541455026641 1 0 -1
981 55 9 0.09 5.488441844925205 8.608827197437282 22.87454309067059 0 0 0
2260 126 10 0.09 5.308741817047007 11.375479750463162 31.31954735072802 0 0 0
5683 316 13 0.09 5.2388314401664795 5.147514732261499 32.00253599603613 1 0 0
2259 126 9 0.09 6.982498766100803 11.738095412938796 32.15273853901866 0 0 0
3415 190 13 0.09 3.0221251910417535 11.706582968556424 31.99239609755775 1 1 0
982 55 10 0.09 3.764238580287296 8.159959845148293 22.662137643301726 0 0 0
2262 126 12 0.09 6.503409037874163 9.41460782767864 32.33596405690723 0 0 0
3663 204 9 0.09 5.112506151579501 7.507745708434448 34.028524096979325 1 0 -1
4009 223 13 0.09 6.320900586938344 2.8924645856853486 34.7412226217225 0 0 0
3997 223 1 -0.273 5.861987027613514 4.373357917570252 37.18564070119884 0 0 0
1489 83 13 0.09 5.0049476747269015 11.731195553161793 41.67029080456163 0 0 0
1487 83 11 0.09 5.257439129666906 9.091968603015896 40.23525998020379 0 0 0
3657 204 3 -0.19 4.4313314504315615 8.986081528769454 36.42259710596116 1 0 -1
3659 204 5 0.546 5.1903677397734675 11.503088763168938 35.95414959019832 1 0 -1
3666 204 12 0.09 2.9818187614579164 7.980230242480131 35.142962874404944 1 0 -1
2175 121 15 0.09 7.635180619245466 7.62022062952932 39.12403655323374 0 0 -1
1478 83 2 -0.174 5.253466340561987 10.215465040514507 40.212757729749235 0 0 0
3655 204 1 -0.273 4.876190055004145 6.924873959947401 34.924765410378036 1 0 -1
3658 204 4 -0.178 4.628411248177733 10.21338670416235 35.40455618600803 1 0 -1
5686 316 16 0.09 6.748625017953362 5.538927431441991 33.967077170072265 1 0 0
2008 112 10 0.09 5.083295498541485 6.444333263072009 41.82153307378257 0 0 0
1485 83 9 0.09 7.253182027974209 9.99581960384798 39.2396361944302 0 0 0
3664 204 10 0.09 4.5162343616881415 5.961829928843939 34.62733933994848 1 0 -1
1479 83 3 -0.19 4.758158911512046 10.672357231301818 41.61216547181507 0 0 0
3656 204 2 -0.174 3.843648573279193 7.7096356892448 35.785247584448555 1 0 -1
3660 204 6 -0.538 4.83660556489591 12.635737638878028 35.58698858481012 1 0 -1
1480 83 4 -0.178 3.3242685490515065 10.247706122022278 41.98045199647108 0 0 0
3667 204 13 0.09 5.356446313574989 8.83305235002405 37.008747506695514 1 0 -1
1488 83 12 0.09 4.697970217785605 10.672746581982228 39.32512512254565 0 0 0
3669 204 15 0.09 3.658874458881466 10.464615623468216 34.96861589154034 1 0 -1
2009 112 11 0.09 7.165167616628256 5.033341163883847 41.38114005011732 0 0 0
3670 204 16 0.09 5.310112370218725 9.899210153854085 34.578701603038716 1 0 -1
3672 204 18 0.309 6.554996846629474 12.14048695782526 37.291023905700975 1 0 -1
3998 223 2 -0.174 7.230950354046634 3.82536611002677 36.60788509043201 0 0 0
1477 83 1 -0.273 6.828983895656524 10.565213824445753 40.060601622903 0 0 0
3665 204 11 0.09 3.4563029391789546 7.057118222957352 36.61743026551777 1 0 -1
3662 204 8 0.09 5.763656736788022 6.65658581586453 35.5354292450711 1 0 -1
1484 83 8 0.09 7.136979723093978 11.654448272900947 40.033753136637124 0 0 0
1048 59 4 -0.178 2.905686454787498 5.270581254499251 39.46334934902951 0 0 0
3661 204 7 -0.621 6.1801785571554415 11.32567225040851 36.839300619250196 1 0 -1
1056 59 12 0.09 4.313745549779718 2.900790470743435 40.225378340183326 0 0 0
3671 204 17 0.309 6.510720143327762 10.438783900576833 37.06810030464524 1 0 -1
1060 59 16 0.09 3.948079091668112 5.705638797115316 39.42261178692544 0 0 0
4006 223 10 0.09 5.906506267852157 5.497118941286286 37.22512916334516 0 0 0
4005 223 9 0.09 5.054802792681138 4.021818709900247 36.51108578472603 0 0 0
3668 204 14 0.09 3.683529666137772 9.383562440815297 37.13239618424146 1 0 -1
1486 83 10 0.09 7.325187105683776 10.023584841395877 40.900114605474194 0 0 0
4004 223 8 0.09 5.607490967266726 3.933537846677617 38.17492189788518 0 0 0
3772 210 10 0.09 2.9587601394677185 3.773477254112474 34.21062834990833 1 0 1
5685 316 15 0.09 7.291912707580101 4.113460480793977 33.08224756622778 1 0 0
1046 59 2 -0.174 3.296819808090913 2.9929049700096524 40.5547750788622 0 0 0
3414 190 12 0.09 2.9363278043153445 9.738478571713447 33.2756705690454 1 1 0
1492 83 16 0.09 3.180143760500248 9.137639796065699 41.80673526775747 0 0 0
3770 210 8 0.09 2.8910246036293064 5.5361290474457 33.41852209849313 1 0 1
1057 59 13 0.09 3.059151916914522 4.944651793446089 41.57215347964938 0 0 0
2010 112 12 0.09 5.792457427203418 3.9478720550391935 41.82679596820545 0 0 0
5674 316 4 -0.178 7.208190835239644 5.206265313427307 32.997825399715666 1 0 0
2000 112 2 -0.174 6.469298112921294 4.736048889178591 42.193027381307466 0 0 0
3771 210 9 0.09 2.9982180268916534 4.095278673362646 32.36336680602615 1 0 1
3822 213 6 -0.538 5.955844375069273 20.40425410386647 7.436616819353917 0 0 0
230 13 14 0.09 7.423415099154137 21.125871067059744 9.863791098974618 0 0 1
3726 207 18 0.309 7.078158965210776 17.879285689462442 10.034244771135675 0 0 1
232 13 16 0.09 4.860735104403115 20.84594924803721 10.363341852996985 0 0 1
5828 324 14 0.09 4.269305529023347 17.200492279034506 5.311718038511078 1 0 0
5823 324 9 0.09 3.7923839379802127 13.794271499880058 5.26464596386586 1 0 0
3830 213 14 0.09 6.99711060282515 20.080974858032935 4.1908434585117496 0 0 0
2142 119 18 0.309 3.711799420925309 14.321134246917987 10.224112684296227 0 0 1
1501 84 7 -0.621 4.1935800543712 21.986954382319052 5.990909819357447 0 0 1
1014 57 6 -0.538 5.029179108928064 17.57485951987715 9.840199625931426 0 0 0
222 13 6 -0.538 4.05271019829776 21.93763420259265 12.202954360353923 0 0 1
231 13 15 0.09 5.919388597411407 19.680653251203903 11.249188026478238 0 0 1
2139 119 15 0.09 7.008735481624618 15.078358695193453 8.839965991929933 0 0 1
2128 119 4 -0.178 6.932248648986252 14.326323089757132 9.669348102730368 0 0 1
2131 119 7 -0.621 4.589547967577852 14.659680861993685 9.906664212658654 0 0 1
3833 213 17 0.309 7.2965194418441275 17.741883490558237 7.38854254204141 0 0 0
5824 324 10 0.09 3.826226443049091 13.788738687628928 7.074217865737131 1 0 0
2141 119 17 0.309 4.75287018116309 15.639127483271594 10.022244112623758 0 0 1
1026 57 18 0.309 4.436900740879935 19.524980459979755 8.432403667230878 0 0 0
229 13 13 0.09 7.683084255157916 21.512984300896186 11.624999408730107 0 0 1
1511 84 17 0.309 3.985496829187138 21.45466944020192 5.199914252855084 0 0 1
3821 213 5 0.546 6.691173275107477 19.532614075771534 7.006800781282996 0 0 0
5816 324 2 -0.174 3.0517932731558344 15.626643698841917 6.2260032193343005 1 0 0
2129 119 5 0.546 5.5720533609238885 13.77049021029841 9.657074066564576 0 0 1
3823 213 7 -0.621 6.4606762086053795 18.241898452111396 7.335456463844618 0 0 0
1015 57 7 -0.621 3.664303588665656 18.94493434645279 8.657029149185375 0 0 0
1013 57 5 0.546 3.9182415090011036 18.10352528501751 9.677040226906069 0 0 0
5820 324 6 -0.538 3.093930957391655 19.477268659980083 3.8740079844336837 1 0 0
220 13 4 -0.178 5.733170229271134 20.72315700212013 11.116152313050033 0 0 1
5825 324 11 0.09 3.315266573019353 16.050758684043004 7.200409469332568 1 0 0
221 13 5 0.546 5.0715837619067745 21.249915915816832 12.37726123602151 0 0 1
5822 324 8 0.09 5.053313414098136 14.710169710441015 6.180700072877133 1 0 0
3834 213 18 0.309 5.687063146122163 18.09773689540387 7.933278987804685 0 0 0
5817 324 3 -0.19 3.182635801225296 16.795853813298528 5.169776432542767 1 0 0
1512 84 18 0.309 4.920409779516644 21.623418744353405 6.633270393922623 0 0 1
5815 324 1 -0.273 3.997751466352693 14.411725851411349 6.1895361210924404 1 0 0
219 13 3 -0.19 6.935153898443944 21.526755284102173 10.724990437004145 0 0 1
2140 119 16 0.09 7.155975748440151 14.94617554555574 10.551865390668414 0 0 1
1023 57 15 0.09 3.175205844005278 16.73734843831952 10.943732296084946 0 0 0
3829 213 13 0.09 7.5066166217933255 18.30352155782522 4.752220747176532 0 0 0
5827 324 13 0.09 3.1564023333731486 16.324049317528356 4.117199797828686 1 0 0
1025 57 17 0.309 2.8017563440996014 19.3896089621212 8.599069668352694 0 0 0
2475 138 9 0.09 4.749766239053231 15.346719037043046 19.797613502670778 1 0 0
2481 138 15 0.09 3.524890630816822 18.411829796781767 20.13612878486588 1 0 0
2083 116 13 0.09 6.523941803281888 16.469938649661714 13.380057633711703 0 0 0
3012 168 6 -0.538 4.7475111741695155 22.22283533634265 16.110711880502475 0 0 1
2073 116 3 -0.19 7.376778477145217 16.106438973407148 13.950696784183112 0 0 0
3020 168 14 0.09 7.359019871083358 20.611380156754052 15.897352197823535 0 0 1
1126 63 10 0.09 3.5725585678397245 16.635082672672965 15.150771148937247 0 -1 0
42 3 6 -0.538 5.868088152610486 21.454611648521706 20.848520764019067 0 0 0
2076 116 6 -0.538 7.679419452174355 19.040872579398737 13.371688078139977 0 0 0
3022 168 16 0.09 6.710398502477359 21.97889746650352 18.604282573561097 0 0 1
2474 138 8 0.09 4.742281043829925 14.395327018826936 18.21880205417562 1 0 0
2482 138 16 0.09 3.247302054561897 16.637171710859395 20.716582911303828 1 0 0
1125 63 9 0.09 4.173292773282238 17.496787263214053 13.822743996119042 0 -1 0
2082 116 12 0.09 6.063700026525692 15.086219794456701 15.3647816418538 0 0 0
2072 116 2 -0.174 6.905998322644183 14.83558574860078 14.70905520503583 0 0 0
2080 116 10 0.09 7.4425896960148625 13.521585489376115 13.116274659367484 0 0 0
2468 138 2 -0.174 4.775870676359068 16.622169094552916 18.21290828224787 1 0 0
2079 116 9 0.09 6.263054228801191 12.80556372585349 14.446207370549082 0 0 0
2478 138 12 0.09 5.336173324921271 17.384379428972196 18.775625331614567 1 0 0
3009 168 3 -0.19 7.311610823987168 20.531309803294207 16.994092329547918 0 0 1
3010 168 4 -0.178 6.606841619202667 21.833070345653738 17.5890502015944 0 0 1
1130 63 14 0.09 3.353566294654473 20.126249208544706 15.241679713931152 0 -1 0
40 3 4 -0.178 6.701411038506172 19.596597984632986 21.96513044940624 0 0 0
41 3 5 0.546 5.534906268872574 20.445629573843398 21.52197321515945 0 0 0
2469 138 3 -0.19 3.2717944782029655 16.81980595902688 18.529824694745386 1 0 0
3024 168 18 0.309 3.3285366236452942 21.571995977091095 18.07977145796538 0 0 1
1124 63 8 0.09 4.496890478793779 18.09843740073586 15.524811485531679 0 -1 0
2476 138 10 0.09 6.289960103204505 15.19529511247645 19.00000816844276 1 0 0
2086 116 16 0.09 6.88804866661273 17.596942781961125 15.4031221636659 0 0 0
2467 138 1 -0.273 5.193435413365936 15.27329883117714 18.770256809388535 1 0 0
2477 138 11 0.09 4.9519922432705075 16.677044825001815 17.099162093966697 1 0 0
3019 168 13 0.09 6.806934479934777 19.567559567611877 17.177068747370587 0 0 1
5868 326 18 0.309 3.0410234027827814 15.142333941930342 13.255680714197897 1 1 0
233 13 17 0.309 6.387153099575908 20.295173953342978 13.611034352865252 0 0 1
234 13 18 0.309 5.108881414441021 21.134202912642593 14.441826532926434 0 0 1
3013 168 7 -0.621 4.311149299237855 21.503362004386684 18.21906042787301 0 0 1
841 47 13 0.09 5.487996403935814 13.434591785192247 21.870292178830848 1 1 0
3011 168 5 0.546 5.15531260151352 21.88420457009091 17.197722974417676 0 0 1
223 13 7 -0.621 5.560178901803651 20.89652658981405 13.59195450280061 0 0 1
2071 116 1 -0.273 6.538153750705369 13.67516275872329 13.792966382682893 0 0 0
3023 168 17 0.309 4.669783111247613 21.530835975996524 19.131262298333947 0 0 1
49 3 13 0.09 7.15238467931218 19.046783414748667 19.9398576975495 0 0 0
1129 63 13 0.09 3.012909581537643 19.976591481385842 13.512124590176043 0 -1 0
2081 116 11 0.09 7.695890809175408 14.349496589769819 15.323978277067036 0 0 0
2078 116 8 0.09 5.709412132439148 13.882111411790085 13.113336685827516 0 0 0
1117 63 1 -0.273 3.7556237778014236 17.642753637241903 14.793219044883944 0 -1 0
5857 326 7 -0.621 2.8924999591986187 14.232143892975207 13.672776535586957 1 1 0
842 47 14 0.09 7.30678206229314 13.844981272090717 21.890274496653216 1 1 0
54 3 18 0.309 3.640499868146673 20.98248662926685 21.838027959552466 0 0 0
52 3 16 0.09 6.299469136230877 18.563804464195712 22.28191014090046 0 0 0
43 3 7 -0.621 4.266498261798137 20.147396869534806 21.926160700003006 0 0 0
5867 326 17 0.309 3.169813679258681 13.875891220696664 14.585708183649924 1 1 0
2470 138 4 -0.178 2.9832311809008685 17.420878526081232 19.941314807126957 1 0 0
831 47 3 -0.19 6.490500267026656 13.227186564757812 22.381700037313646 1 1 0
2724 152 6 -0.538 2.986469797484197 13.923263901031156 16.667907779520824 0 0 0
44 3 8 0.09 7.469128124074931 16.923798620554024 22.298933920644615 0 0 0
2480 138 14 0.09 2.943832122689075 17.60355557184105 17.840861542000894 1 0 0
2856 159 12 0.09 7.5877022052887 22.078063191409758 30.315075629666822 0 0 0
5327 296 17 0.309 6.53335378568036 18.294534751440594 27.21214765672128 1 0 0
2855 159 11 0.09 7.638971120399132 21.019705365585615 31.727658967845187 0 0 0
5919 329 15 0.09 5.138108053170265 21.59822569583533 30.647190924344805 1 0 1
844 47 16 0.09 5.666718046799078 12.855318488175989 24.386357103188832 1 1 0
3649 203 13 0.09 2.992601818894367 14.513126840112834 28.54984177412606 0 0 1
5324 296 14 0.09 4.909953626581785 21.48256192925772 24.34329002171663 1 0 0
5323 296 13 0.09 6.361158780817444 21.50905744901776 25.177661907200836 1 0 0
5317 296 7 -0.621 6.214359627162219 18.119262013253223 26.285115201665697 1 0 0
3639 203 3 -0.19 3.4553936127463696 15.088074365144795 27.786661954781337 0 0 1
5920 329 16 0.09 4.630305615609341 20.38904358527936 29.31274310766108 1 0 1
832 47 4 -0.178 6.354440833793724 13.57031163792623 23.863721014489705 1 1 0
5908 329 4 -0.178 4.461358805364614 20.806614496847722 30.354119880684916 1 0 1
846 47 18 0.309 5.212292777295239 16.69999647553063 24.366877842379044 1 1 0
5921 329 17 0.309 2.9445026972157757 18.723632627174922 30.611487152616192 1 0 1
5911 329 7 -0.621 3.7168082771906787 18.653996650853045 31.249489640090946 1 0 1
3647 203 11 0.09 4.790755746346009 13.669367619587172 27.04372410418949 0 0 1
5909 329 5 0.546 4.582379613077754 19.6662311667686 31.321012345227064 1 0 1
5314 296 4 -0.178 5.020784852366181 20.219996070364292 26.237384997106673 1 0 0
3645 203 9 0.09 6.7829491960360615 14.637381318897685 28.611597125907103 0 0 1
834 47 6 -0.538 7.228412386539638 15.591130694850888 24.63017718590443 1 1 0
3637 203 1 -0.273 5.702570439205653 14.415476907263464 28.863869848171223 0 0 1
5315 296 5 0.546 5.4289661753622065 18.95801680439354 25.641758624339147 1 0 0
1692 94 18 0.309 7.188509483039731 18.752649079322154 31.258179902327985 0 0 0
3651 203 15 0.09 4.147912938891084 17.27770463979615 27.78450971558505 0 0 1
5316 296 6 -0.538 5.0331924044748035 18.744136285185668 24.505233047818585 1 0 0
845 47 17 0.309 4.324098537909134 15.181528241174565 24.008072455439066 1 1 0
5313 296 3 -0.19 5.324424422332309 21.421295957875287 25.334460234847015 1 0 0
3646 203 10 0.09 5.600931975175253 13.3774313793938 29.23116353942731 0 0 1
3640 203 4 -0.178 3.3908968679182423 16.58960048001373 28.265668701532633 0 0 1
5328 296 18 0.309 6.695954106749058 17.475875029262482 25.77067232090509 1 0 0
3638 203 2 -0.174 4.8378156412201285 14.611992197185073 27.577384195013803 0 0 1
5922 329 18 0.309 3.7096513551772414 18.150414541207844 32.07926258476565 1 0 1
835 47 7 -0.621 5.130413918106791 15.742444775815235 24.219340602699326 1 1 0
5325 296 15 0.09 3.947116383220978 20.20247316116461 26.414448986577092 1 0 0
833 47 5 0.546 6.251805582045896 15.035312641249085 24.225758701233772 1 1 0
3138 175 6 -0.538 2.9447779159006795 13.816578551948918 23.060020817876808 1 0 1
3644 203 8 0.09 5.333141132423721 15.092541614205466 29.56339982258617 0 0 1
53 3 17 0.309 4.083060636087693 19.354081995530887 22.577889435644135 0 0 0
5326 296 16 0.09 5.50520071466366 20.254954053847875 27.234193343967828 1 0 0
5907 329 3 -0.19 3.0136692896151196 21.3862034311763 30.31219339621171 1 0 1
843 47 15 0.09 7.342096557299345 13.188386336737965 24.149006600347285 1 1 0
3648 203 12 0.09 5.389228580577491 15.396882013398113 27.04515687690879 0 0 1
3652 203 16 0.09 3.763337146887877 16.645394524841144 29.304191392335714 0 0 1
5910 329 6 -0.538 5.43047838380018 19.65155948335265 32.19885180491805 1 0 1
51 3 15 0.09 7.116414853607571 19.975479606559695 22.904548168063666 0 0 0
3650 203 14 0.09 2.9300565025275174 14.908179213283036 26.805414716748444 0 0 1
5321 296 11 0.09 3.696433058171039 22.185631778336788 26.381045760270215 1 0 0
5916 329 12 0.09 2.8785719470230937 22.116107635128493 28.22745262036901 1 0 1
5023 280 1 -0.273 4.468762243595416 15.815682053501463 40.959025783806275 0 0 0
5036 280 14 0.09 6.2296482373492115 17.109045008468506 39.16944826698932 0 0 0
5033 280 11 0.09 5.22291301751871 15.07406463793374 39.03126633111707 0 0 0
5287 294 13 0.09 5.726269068722024 20.032589641855484 37.93665961145104 1 0 0
5283 294 9 0.09 5.068512251858147 21.846741500299366 41.0849715004272 1 0 0
5286 294 12 0.09 4.267640881473232 19.213030826415398 39.78043839436608 1 0 0
5275 294 1 -0.273 4.586887053671316 20.89771147536904 41.07559521188802 1 0 0
322 18 16 0.09 3.1745525955675777 14.715349866667701 36.78665456619115 0 0 -1