LAMMPS data file via write_data, version 29 Aug 2024, timestep = 1000000, units = real

5000 atoms
5 atom types
4000 bonds
4 bond types
3000 angles
3 angle types
2000 dihedrals
2 dihedral types

0.3677326654087878 44.63226733458042 xlo xhi
0.3677326654087878 44.63226733458042 ylo yhi
0.3677326654087878 44.63226733458042 zlo zhi

Masses

1 32.06
2 12.011
3 12.011
4 1.008
5 1.008

Pair Coeffs # lj/charmmfsw/coul/long

1 0.45 3.56359 0.45 3.56359
2 0.167 3.27851 0.167 3.27851
3 0.1032 3.55023 0.1032 3.55023
4 0.1 0.801809 0.1 0.801809
5 0.009001 1.55907 0.009001 1.55907

Bond Coeffs # harmonic

1 328.79 1.7011
2 980 1.22
3 275 1.325
4 426 1.07

Angle Coeffs # charmm

1 40.7 179.93 0 0
2 38.8 95 0 0
3 8 180 0 0

Dihedral Coeffs # charmmfsw

1 0 3 0 1
2 0 3 0 1

Atoms # full

1571 315 1 0.099 5.523317639521443 5.902938930353096 1.5171695214236214 1 0 1
2351 471 1 0.099 2.573029718311773 0.9896214214286052 8.48137030677772 1 1 -1
1368 274 3 -0.352 2.517623470067555 8.699662439556633 6.926091663492154 1 1 0
3805 761 5 0.29 4.622402316795015 9.926137262265291 1.4618070763118118 1 -1 -1
4037 808 2 -0.197 2.3691182480458988 4.215239600241501 2.9522965670539305 1 -3 0
4734 947 4 0.16 2.577386062368807 6.555360599995717 3.814725733678792 1 -1 1
1366 274 1 0.099 5.137690928901248 9.390180208917688 5.810795791667266 1 1 0
4865 973 5 0.29 4.893807111621529 6.1325090065314765 7.49436407930162 0 -1 1
4039 808 4 0.16 0.6528543275671104 5.065117790719559 1.7024915732365729 1 -3 0
3852 771 2 -0.197 2.6335129022173205 5.6581343123363945 9.014855293934465 -3 0 0
1574 315 4 0.16 4.527563734627318 5.727064555103026 2.381924839274884 1 0 1
2354 471 4 0.16 3.172751496934678 1.8058607291976267 9.302630634677403 1 1 -1
3803 761 3 -0.352 5.0934166674908585 10.666257531202051 2.0462073188038863 1 -1 -1
4731 947 1 0.099 2.1897272623642836 7.761503282059177 3.5571428495230117 1 -1 1
2352 471 2 -0.197 3.457819717203494 1.535227871857972 7.139518392106485 1 1 -1
3855 771 5 0.29 3.112379178267548 3.8374668131402174 7.718856638355828 -3 0 0
4038 808 3 -0.352 2.77575987251701 4.4572818071630245 4.072886307024515 1 -3 0
4040 808 5 0.29 3.2024049093488647 4.333113876394558 5.0605181985364664 1 -3 0
4794 959 4 0.16 5.399300312299704 8.537279100335372 10.352674042018071 3 3 2
1369 274 4 0.16 5.548253207388917 8.218994836531422 6.2924447640601295 1 1 0
4036 808 1 0.099 1.60330037850133 4.109323315687359 1.430217056561718 1 -3 0
2208 442 3 -0.352 2.262321228537227 11.065891762347146 0.6284717963177286 1 1 -1
1367 274 2 -0.197 3.579377708198232 9.053796867146005 6.492390441313613 1 1 0
4792 959 2 -0.197 5.661925420624024 6.453559896606728 11.216539273847081 3 3 2
3853 771 3 -0.352 2.9672865114581337 4.758476240557688 8.28612401255604 -3 0 0
3065 613 5 0.29 2.9308606933749357 10.656852237383648 11.297899277600585 2 -2 -1
2353 471 3 -0.352 4.084131795808156 1.9349318463127625 6.198147962902519 1 1 -1
4863 973 3 -0.352 5.601364484235063 6.1107189667393955 6.675617531820147 0 -1 1
1370 274 5 0.29 1.586994612842606 8.15786470204342 7.162889409783197 1 1 0
3854 771 4 0.16 2.6814505838574276 5.835269981709387 11.027161805778038 -3 0 0
3851 771 1 0.099 2.1827878720601133 6.760814979938801 10.176292819829658 -3 0 0
4481 897 1 0.099 4.958807512634651 2.3065042254326498 1.7629700983597716 -2 1 -1
2124 425 4 0.16 0.7397479500681186 1.530313465390398 6.067262698052177 2 1 -2
4484 897 4 0.16 3.9200394913593843 3.0417439820961625 2.3052214265103332 -2 1 -1
4482 897 2 -0.197 5.79191541180312 2.6917700303869507 3.1625210885833845 -2 1 -1
2355 471 5 0.29 4.615305029269006 2.078988862180714 5.287559790310362 1 1 -1
4732 947 2 -0.197 1.6409411615331673 7.663613846954181 1.9932736060095453 1 -1 1
1828 366 3 -0.352 5.400823324222349 1.2941282817929556 11.33572129440231 0 0 0
4733 947 3 -0.352 1.4445786895278359 7.545462297545512 0.8245604371873609 1 -1 1
1384 277 4 0.16 5.63995513694865 1.9354766588168473 8.668274764341792 1 2 0
2085 417 5 0.29 0.6484397340885041 5.549959357120981 7.0200169975034115 -2 2 3
3325 665 5 0.29 5.854138792508955 11.286048095563606 9.258650321855166 -1 -1 -3
2624 525 4 0.16 2.809415829317722 10.58001427240699 18.373099197670008 0 0 1
2645 529 5 0.29 1.2717026048411662 1.7937344181578765 17.110258108275104 1 1 1
3316 664 1 0.099 4.439695317201945 7.46022598792751 20.36339886215263 3 0 0
4337 868 2 -0.197 2.4897775625087566 9.514101122020762 16.278883536292742 2 0 1
4339 868 4 0.16 2.8492088506532585 7.272762050168628 16.361374651394485 2 0 1
3285 657 5 0.29 4.427590056692142 2.142580611506209 16.093851432672615 0 1 2
3211 643 1 0.099 3.739441185497261 2.444083838335968 19.263603615070775 2 0 0
3212 643 2 -0.197 4.8125593711716474 1.187189196911743 18.984435200251195 2 0 0
3319 664 4 0.16 3.7578438807243737 7.6551123804418495 19.261880336731604 3 0 0
3052 611 2 -0.197 3.0622665043928974 5.333929698566859 17.379027953628448 0 -1 -2
3317 664 2 -0.197 5.72502116191919 6.555543805278791 19.781216872706604 3 0 0
3615 723 5 0.29 5.101911447140057 5.388483476051656 21.803450138748378 2 1 -1
3282 657 2 -0.197 2.4874478501555695 1.703153573135221 15.01906031783908 0 1 2
3214 643 4 0.16 3.9578633959941256 3.14712152038117 18.183827101541368 2 0 0
2621 525 1 0.099 2.5859267852488967 10.31788504025759 19.648675631679776 0 0 1
3283 657 3 -0.352 3.610809277232854 1.9143980559107787 15.484507225893728 0 1 2
1826 366 1 0.099 3.0923958652379486 2.992716884588549 11.801188302582375 0 0 0
4338 868 3 -0.352 1.589855403883356 10.366235760303866 16.17570085487049 2 0 1
4355 871 5 0.29 0.6586707942429517 9.31330327564019 22.004424273942224 2 -1 0
3063 613 3 -0.352 3.622605219057596 10.960605712136648 12.12859096176292 2 -2 -1
4340 868 5 0.29 0.9173723427062379 11.05702695498028 16.5458906500014 2 0 1
3281 657 1 0.099 0.9255992122219554 1.4527344825065707 14.393200851661469 0 1 2
1829 366 4 0.16 3.0888379018225125 2.769827066040181 13.087405183191462 0 0 0
4401 881 1 0.099 1.2725931348044748 5.2941980195318505 21.935741281488948 1 -1 -1
3055 611 5 0.29 5.198064233684115 5.079637191633201 16.626888071558184 0 -1 -2
4336 868 1 0.099 3.7221795347910582 8.23796672158965 16.348943134209346 2 0 1
3053 611 3 -0.352 4.233214820030037 5.175484335556412 17.016662382658296 0 -1 -2
1569 314 4 0.16 5.8688493924262035 1.0262620422655615 22.245711754114748 0 1 -1
1073 215 3 -0.352 2.1021236346565635 5.567549048815007 14.33874979882954 -1 2 -2
1075 215 5 0.29 2.273725834921555 4.7727726549061 15.05205923642273 -1 2 -2
1072 215 2 -0.197 1.6840870259796719 6.625319305814775 13.853193799409327 -1 2 -2
1071 215 1 0.099 0.8753596683982385 8.052472942236074 13.538615291952784 -1 2 -2
2622 525 2 -0.197 0.9365950895546918 10.299829050368363 19.372100994542954 0 0 1
1074 215 4 0.16 1.2786725380180868 8.770111355502838 14.557545333370316 -1 2 -2
3051 611 1 0.099 1.4666341298023162 5.678164410655867 17.943047483953404 0 -1 -2
3054 611 4 0.16 1.3171530180579836 4.396521436960357 18.167318417476405 0 -1 -2
2643 529 3 -0.352 0.6342849478489857 2.199533980651074 17.848543263729688 1 1 1
4791 959 1 0.099 5.108214676425154 8.048402525697341 11.519291109606907 3 3 2
3284 657 4 0.16 0.3768044235742534 0.62431131477353 15.28463244506716 0 1 2
1827 366 2 -0.197 4.436373811307964 2.014005057704513 11.444142524819783 0 0 0
4351 871 1 0.099 0.8877658358454596 10.499283002450216 25.743711300213594 2 -1 0
750 150 5 0.29 4.1619450722733315 2.275387087599613 29.765284687251807 -2 1 2
852 171 2 -0.197 3.376651746516122 9.312010642394766 32.918608588170756 0 0 0
1248 250 3 -0.352 4.594092478347768 6.776736690643096 30.567443836537347 0 1 -1
1250 250 5 0.29 4.20980125816285 7.454890190447146 31.288717707265917 0 1 -1
3612 723 2 -0.197 4.260227840026708 4.377904839302115 23.745500066224047 2 1 -1
4535 907 5 0.29 2.690633909791708 4.459590784735189 31.131319266623198 0 -1 0
4533 907 3 -0.352 2.9066371195826357 3.520158034983296 31.63791955870064 0 -1 0
3611 723 1 0.099 3.5076999192888 3.574597209627822 25.045598032853928 2 1 -1
1459 292 4 0.16 2.548427068467395 8.787477571293786 23.915058218789493 2 0 0
4532 907 2 -0.197 2.893969427281327 2.5543868276019928 32.404959862630655 0 -1 0
3252 651 2 -0.197 1.0031296940852168 7.194080920975888 31.15894329587699 0 1 -2
855 171 5 0.29 5.276067748604221 9.971553947236933 31.807518277945643 0 0 0
1249 250 4 0.16 4.175230156015106 6.1074399952965654 27.328111724235395 0 1 -1
853 171 3 -0.352 4.3728994777357855 9.615955783194709 32.262250449019696 0 0 0
1247 250 2 -0.197 4.8817082565388565 6.250393378704473 29.494848611931268 0 1 -1
1456 292 1 0.099 3.6932171417388515 8.154809792847548 24.0834732718182 2 0 0
748 150 3 -0.352 4.928578452256271 2.201673690221657 29.04391651656741 -2 1 2
1458 292 3 -0.352 3.4246703480276954 8.286107265247093 26.963652181001137 2 0 0
1246 250 1 0.099 4.980192067071393 5.312566268269489 28.03606476268441 0 1 -1
1457 292 2 -0.197 3.546862529905972 8.24021956114025 25.761764191127202 2 0 0
3614 723 4 0.16 4.535439468689635 3.647928443193905 25.80349129635074 2 1 -1
960 192 5 0.29 2.7642576891791304 0.5204492974256372 28.463195103073826 -2 1 1
4352 871 2 -0.197 0.8376047356683891 9.899888161598138 24.159733771094096 2 -1 0
1460 292 5 0.29 3.5144235592817674 8.422115481557109 27.960216677021272 2 0 0
958 192 3 -0.352 1.9403802975603257 1.2457555397489068 28.136066030105738 -2 1 1
1989 398 4 0.16 0.5864160019793473 7.744831401447278 24.737903318596157 1 3 -1
747 150 2 -0.197 5.800083279265253 2.028388074650629 28.183242676197096 -2 1 2
3251 651 1 0.099 1.399710102329327 8.480088841838027 30.106820114966435 0 1 -2
3253 651 3 -0.352 0.6735966242850884 6.325946691267361 31.928433498171774 0 1 -2
4353 871 3 -0.352 0.7374946525620921 9.605063257120706 23.000372724056668 2 -1 0
957 192 2 -0.197 1.280739265592681 2.2397853355402226 27.887849103089597 -2 1 1
544 109 4 0.16 5.386656291417898 11.337547687861381 25.316021988062516 0 3 2
4354 871 4 0.16 1.7054246026900144 9.64475793557042 26.18395440461985 2 -1 0
4531 907 1 0.099 2.7886627686222734 1.2387269706624757 33.43258654072887 0 -1 0
3254 651 4 0.16 2.0487951820349517 9.133702058508872 31.08217317458577 0 1 -2
3613 723 3 -0.352 4.760484941433941 4.916105927413608 22.76039119744084 2 1 -1
4534 907 4 0.16 4.091512172093896 0.7706187081709814 33.20819528505846 0 -1 0
4404 881 4 0.16 0.774435296824568 4.292182061868816 22.627977034016304 1 -1 -1
4941 989 1 0.099 4.780383712446846 1.9223070235779578 37.63521498943841 -1 -1 0
1187 238 2 -0.197 1.5318645546300886 6.482685198251956 36.19379484158215 2 -1 1
1186 238 1 0.099 1.7539551002586824 5.1630667931849565 35.1195029313127 2 -1 1
2021 405 1 0.099 0.920619305335917 2.7721047180837104 39.47398392117183 1 -1 -1
4944 989 4 0.16 5.704557426081045 2.1954327784421097 36.86065058187706 -1 -1 0
4943 989 3 -0.352 5.539124323718306 3.932738293003504 39.608960975008564 -1 -1 0
1188 238 3 -0.352 1.1371922090509248 7.20409407671092 37.06598424325999 2 -1 1
1601 321 1 0.099 5.760142153460076 5.727651924934934 36.420760565322425 1 1 0
3194 639 4 0.16 1.3901307181559819 10.996386082875455 41.02872144911924 -1 2 -2
2100 420 5 0.29 2.1736261120567892 11.327416204967381 36.39899428947522 -1 0 0
854 171 4 0.16 2.7530259715618186 8.466155961348365 34.69006780127492 0 0 0
3191 639 1 0.099 1.5158421658680634 9.70421599114447 41.34137713801005 -1 2 -2
4945 989 5 0.29 5.835951009388412 4.391305199970891 40.56613204219271 -1 -1 0
4942 989 2 -0.197 5.134959407089179 3.1257185727221968 38.78801062241976 -1 -1 0
1190 238 5 0.29 0.6740739375638259 7.760883584666083 37.83240752998591 2 -1 1
16 4 1 0.099 4.061157620311823 9.068924603139388 38.04383710577303 -2 3 -2
4456 892 1 0.099 2.6819862347405765 6.364923775614997 40.34704336686042 0 0 0
4459 892 4 0.16 3.2354096966384063 5.211317553778727 40.52680295663041 0 0 0
1575 315 5 0.29 4.122586801701061 4.6943666314870125 42.31232786849893 1 0 0
1573 315 3 -0.352 4.2982727664597515 4.841955494933326 43.35203542595887 1 0 0
1189 238 4 0.16 3.0371546485258114 4.976935587851648 35.417365192463855 2 -1 1
17 4 2 -0.197 4.341434413134021 10.49491509244369 38.87136383795417 -2 3 -2
1572 315 2 -0.197 4.8644552276022965 5.136210994365855 44.38877166568919 1 0 0
2098 420 3 -0.352 1.3908846216124247 10.797136424717287 36.92386605971822 -1 0 0
851 171 1 0.099 2.0002656320337193 9.067728626381564 33.83384005200098 0 0 0
4457 892 2 -0.197 1.3077421303838608 6.003839221660199 41.263955199184366 0 0 0
2022 405 2 -0.197 0.8965692565507224 2.4612352185164785 37.850708936741064 1 -1 -1
19 4 4 0.16 2.9875906304853648 9.58393143737386 37.40139153785891 -2 3 -2
4820 964 5 0.29 2.703729462146752 1.0130559464913356 40.6802501226027 2 -1 1
4735 947 5 0.29 1.253400744905044 7.4142076289903 44.09547468370095 1 -1 0
2023 405 3 -0.352 0.9585127122293351 2.222953210761268 36.66312292362838 1 -1 -1
2025 405 5 0.29 1.0681470335168628 1.9098126346359472 35.61435511616316 1 -1 -1
4891 979 1 0.099 5.3549476978426735 8.624594999238811 41.82543182888288 -2 1 0
2210 442 5 0.29 2.0731916279895257 10.10373902570455 44.52791801702689 1 1 -2
209 42 4 0.16 5.899597546616955 9.155126574595396 34.87763323286509 -2 1 0
1357 272 2 -0.197 2.7059786322796575 13.065745077253542 4.821867111252686 2 0 1
1358 272 3 -0.352 3.141082550159344 14.173051723399896 5.171753440327113 2 0 1
2339 468 4 0.16 4.7147719775830526 19.133565400131797 3.8160485125757515 2 -1 0
1360 272 5 0.29 3.6382906013375 15.135277268483295 5.461265805777298 2 0 1
3448 690 3 -0.352 2.6048656227860034 17.80889448630969 10.545207707181483 0 1 3
2824 565 4 0.16 5.652132682899504 17.30335271521499 9.670153461386525 1 1 1
3533 707 3 -0.352 4.7320227398730985 18.028974490267025 7.747037713696714 1 0 1
2209 442 4 0.16 2.331165630228901 13.650461039011176 2.8014389457833855 1 1 -1
37 8 2 -0.197 4.974789290459016 21.398413849678057 4.856595050297763 -1 2 1
4811 963 1 0.099 2.154241142441214 12.662802374441886 8.142071509926357 1 -1 1
4906 982 1 0.099 4.671104660510043 20.550967681980353 11.100548472892836 2 -1 1
40 8 5 0.29 4.485643959703494 19.996444444451594 6.617084550989052 -1 2 1
2206 442 1 0.099 2.266979524039535 13.84268257623648 1.5167146596293903 1 1 -1
4814 963 4 0.16 2.470930564352935 12.2503408481452 6.93691489206404 1 -1 1
3096 620 1 0.099 1.1986585258143756 21.59760168180581 1.9515531144805274 2 -3 0
3353 671 3 -0.352 0.6089205481465687 16.69451370697865 6.953471283398942 1 1 1
1356 272 1 0.099 2.3515929364124957 11.45012009996539 4.603757960348486 2 0 1
4812 963 2 -0.197 0.5221096912855956 12.307905273710242 7.892148328780445 1 -1 1
3099 620 4 0.16 2.1573683967915267 20.79349194391807 1.631400880666098 2 -3 0
2336 468 1 0.099 4.487999096986699 17.85476920736573 3.5548872087840504 2 -1 0
3450 690 5 0.29 3.4921135836243096 17.28159518464883 10.201317618494867 0 1 3
3355 671 5 0.29 0.753959618659627 16.64749840955915 5.859329547187939 1 1 1
4790 958 5 0.29 1.6513038363967192 16.887297353095978 1.9864670820555819 5 0 1
2207 442 2 -0.197 2.203953640638466 12.219254243972175 1.0346121783686963 1 1 -1
4788 958 3 -0.352 0.8955203119924442 17.332060700384243 2.6271464355010052 5 0 1
3535 707 5 0.29 3.680311996579079 18.303464911507245 8.01003457109198 1 0 1
2520 504 5 0.29 1.627968748063446 21.917635806540126 5.765704238484889 0 0 0
4909 982 4 0.16 3.4056116211688536 20.133366218406444 11.25080199959674 2 -1 1
4907 982 2 -0.197 4.503609789259197 21.63598346650942 9.773727628632166 2 -1 1
38 8 3 -0.352 4.74645858256462 20.54459613678576 5.691733145034874 -1 2 1
4908 982 3 -0.352 4.245793266515152 22.31371846066515 8.822242820540437 2 -1 1
125 25 5 0.29 4.205219167796486 16.14725300209332 0.8080598286300851 -1 0 0
3447 690 2 -0.197 1.7297665095397086 18.592652470745325 10.960988483235505 0 1 3
1359 272 4 0.16 1.1104233120270774 11.696206965405741 4.40213639857822 2 0 1
2385 477 5 0.29 5.561196463017419 13.310732888159539 5.531544135242154 0 2 0
3354 671 4 0.16 1.038469088812805 14.748939454938094 9.535892763813091 1 1 1
3802 761 2 -0.197 5.753838122661672 11.667542654735557 2.394482582217083 1 -1 -1
3352 671 2 -0.197 0.5067030029011955 16.250635288315742 8.07213459102301 1 1 1
3532 707 2 -0.197 5.824537646908029 17.605210394746205 7.457980619154576 1 0 1
2822 565 2 -0.197 5.552104367919561 15.710363841094146 11.391528121457304 1 1 1
2383 477 3 -0.352 5.891738459211552 13.492853429885406 6.53850656728878 0 2 0
477 96 2 -0.197 1.7360704562675797 20.745924016914017 16.384248509969307 2 1 0
2827 566 2 -0.197 0.7444964084459083 19.681308379508334 20.92431512674239 -1 0 1
2346 470 1 0.099 1.087673137919856 16.718352298333542 13.683617855441216 0 1 -2
4362 873 2 -0.197 4.521602916617435 17.9419824901343 18.990907977607748 1 1 1
4363 873 3 -0.352 4.563346759606846 17.14636333273632 19.919353265238446 1 1 1
545 109 5 0.29 3.2004004510667254 12.164960200038024 21.999353423546186 0 3 2
2349 470 4 0.16 0.8911178177542596 17.794998146498443 13.04227765617375 0 1 -2
2348 470 3 -0.352 3.8264199161407424 17.294048942452115 14.683055727628672 0 1 -2
67 14 2 -0.197 3.852007346866431 13.733627999758678 19.680438759899022 0 -2 -2
3204 641 4 0.16 5.12756832587658 19.068221243645038 20.889106630113 -1 2 0
317 64 2 -0.197 1.1331068591457785 13.29694679430645 16.66407574112244 1 0 -3
3446 690 1 0.099 0.7513409042433519 19.839215321755802 11.617805547396124 0 1 3
66 14 1 0.099 2.225996044636198 14.270927083868825 19.754538302721063 0 -2 -2
2829 566 4 0.16 1.7857798672239313 17.84908113327343 20.30344419153285 -1 0 1
2191 439 1 0.099 5.759500203877879 14.62701235370843 16.7206234891797 1 1 2
68 14 3 -0.352 5.0136370766746055 13.487715932359977 19.915703586215106 0 -2 -2
316 64 1 0.099 2.423009645864723 13.675593450678202 15.611187390301412 1 0 -3
478 96 3 -0.352 1.3408466517056514 20.67456022171403 17.531711151682014 2 1 0
2347 470 2 -0.197 2.711333084420326 17.017157529049626 14.246722043695742 0 1 -2
4365 873 5 0.29 4.514120567573803 16.470321844513954 20.755801610861745 1 1 1
2194 439 4 0.16 5.463989962109465 15.640954843496678 17.491649808332202 1 1 2
479 96 4 0.16 2.7997399118020665 22.107359095286306 15.05620439042322 2 1 0
4361 873 1 0.099 4.489827270707192 19.102581014814852 17.80985848152297 1 1 1
3061 613 1 0.099 5.311883447221977 12.020333413542321 14.29936937096932 2 -2 -1
2350 470 5 0.29 4.850175994889618 17.35154912951933 14.979416598875467 0 1 -2
476 96 1 0.099 2.2120033382492763 20.867029991630552 14.760207536515251 2 1 0
69 14 4 0.16 2.2345197749312855 14.44167825927984 18.560868276815096 0 -2 -2
2826 566 1 0.099 0.7499348830129989 17.96454892151808 21.1384985669877 -1 0 1
3201 641 1 0.099 5.269025701510459 20.027939044734058 21.80030991300095 -1 2 0
1191 239 1 0.099 1.340668933574964 16.767057590169777 17.544229631713335 1 0 0
319 64 4 0.16 2.139723946837256 12.754534269604592 14.683664982372822 1 0 -3
1194 239 4 0.16 1.9595210330915829 17.661705683908306 16.77030202592326 1 0 0
4364 873 4 0.16 5.361098941152719 19.838688124286236 18.472204026509356 1 1 1
2823 565 3 -0.352 5.2601497641824935 14.55751446442988 11.686364221280915 1 1 1
2825 565 5 0.29 4.919076072732116 13.540515099633504 11.871546046517418 1 1 1
2828 566 3 -0.352 0.7382281762618128 20.911303429152678 20.731604801303902 -1 0 1
3062 613 2 -0.197 4.293618020533837 11.492554416839486 13.005242738305187 2 -2 -1
480 96 5 0.29 1.0314893028985233 20.605536667155672 18.560204270177323 2 1 0
1704 341 4 0.16 5.180317353087904 22.290934654049657 13.380172810142396 0 0 2
2830 566 5 0.29 1.1509536866077648 21.942802130341274 20.55900337287822 -1 0 1
3280 656 5 0.29 3.506341383967455 13.648836678081492 30.283108270172182 -1 1 1
2511 503 1 0.099 2.3143170980179186 20.735149360642726 23.657823856020702 2 -1 -1
2925 585 5 0.29 1.6683448355521135 14.152859708394821 24.997483328748906 -1 0 -1
4970 994 5 0.29 3.2633415115528237 11.85337614004322 28.252095267719476 -1 0 -2
2514 503 4 0.16 2.8920908130693155 20.077889308988755 22.645721131641125 2 -1 -1
4431 887 1 0.099 1.8682577636888285 15.118486956349956 27.68276866272268 2 0 -3
4608 922 3 -0.352 0.5565866723592608 18.25891036348347 25.99873128802062 0 2 -1
1419 284 4 0.16 4.129054443102694 19.70072906877461 27.52364323068356 -1 -1 0
3277 656 2 -0.197 2.8934621160550837 15.09618084742273 31.992483986832188 -1 1 1
3834 767 4 0.16 0.7919681608038442 21.917024968749196 31.576332926500385 2 1 -2
2512 503 2 -0.197 2.960848594345453 22.28268510198686 23.32586041586404 2 -1 -1
4610 922 5 0.29 0.6845115033868334 17.544462018215306 26.7746463071255 0 2 -1
1012 203 2 -0.197 5.3779659552388 16.078000117020125 22.984393458298698 0 2 0
4432 887 2 -0.197 3.5162850957648377 15.044322187438912 27.958367745732584 2 0 -3
3832 767 2 -0.197 2.8144783687104944 22.07221222673826 30.31215202743891 2 1 -2
238 48 3 -0.352 0.7621416282155304 21.193349177851513 26.73347336673491 -2 3 1
1417 284 2 -0.197 5.486127843102551 19.247713772744234 25.94209403264743 -1 -1 0
759 152 4 0.16 4.105040934209267 16.708996772400067 30.27624630508731 1 0 3
4434 887 4 0.16 1.7524555409316145 13.940794049717933 28.321993276218812 2 0 -3
4210 842 5 0.29 3.2363089643253358 12.532808542309073 33.54482719677607 -1 1 -1
1156 232 1 0.099 1.4822298219049983 19.451623648716062 33.429434898198494 0 0 1
3278 656 3 -0.352 3.0948139942776307 14.339268561341939 31.062708358122844 -1 1 1
4433 887 3 -0.352 4.691027486380284 15.041924288150115 28.12016931415287 2 0 -3
1011 203 1 0.099 4.1065377419955755 15.58783087160324 24.068688657311153 0 2 0
4968 994 3 -0.352 2.402755811631734 11.785453974226142 28.846240552561014 -1 0 -2
542 109 2 -0.197 3.7332654020027545 11.995320434256117 24.158986180544716 0 3 2
543 109 3 -0.352 3.3575094446254887 12.162653543889466 23.038379810029024 0 3 2
756 152 1 0.099 4.564156325656462 17.96320916112093 30.015393669752495 1 0 3
3833 767 3 -0.352 3.993868351228153 21.804962665813072 30.255855056616568 2 1 -2
4967 994 2 -0.197 1.486489465087222 11.864650798202204 29.64220161879466 -1 0 -2
1014 203 4 0.16 4.6962128820543 14.552639560817848 24.544518027210593 0 2 0
2923 585 3 -0.352 0.5875732630760255 14.125638396749702 24.778187338265017 -1 0 -1
757 152 2 -0.197 5.778461398574192 18.001399825863743 31.15246931139498 1 0 3
3835 767 5 0.29 5.082114458483212 21.712909131906407 30.121522053262648 2 1 -2
1416 284 1 0.099 4.701915259904918 20.53668803340164 26.689167050491964 -1 -1 0
541 109 1 0.099 4.171646798602266 11.771229132046987 25.769957941728777 0 3 2
3276 656 1 0.099 2.622795052924149 16.20291206860731 33.25153950526187 -1 1 1
240 48 5 0.29 0.7074697487320232 20.243457529665186 27.260479939814992 -2 3 1
3480 696 5 0.29 1.2858106810682883 20.198740378545796 29.565726402231057 0 1 -1
3478 696 3 -0.352 0.8715332849376998 19.26764513630708 29.85170596653984 0 1 -1
1159 232 4 0.16 1.0833425186071688 18.769566902313965 32.34652788161956 0 0 1
4435 887 5 0.29 5.773154983817691 15.260538574882096 28.198413298297094 2 0 -3
237 48 2 -0.197 0.5394192088908816 22.40722215476959 26.52171324356475 -2 3 1
2904 581 4 0.16 5.380900928361814 22.42985347715701 23.835763358998367 -1 0 -1
1418 284 3 -0.352 5.898876363076815 18.234580657330135 25.38551132638189 -1 -1 0
4966 994 1 0.099 0.3731998579114233 11.861961012141434 30.89101748412732 -1 0 -2
2028 406 3 -0.352 1.095884295237009 12.775004841150729 39.51510180684705 1 0 -1
4692 939 2 -0.197 5.675831054301786 14.026623816469352 43.75809893776094 3 1 -2
4242 849 2 -0.197 1.82837555257905 17.287815816912296 38.66272216267375 1 3 0
4245 849 5 0.29 0.8580397936386441 15.517788043545027 39.79299894292512 1 3 0
4694 939 4 0.16 4.996279313655464 11.923748208900076 44.32100965040401 3 1 -2
4208 842 3 -0.352 3.60099140889994 12.73586967742963 34.52708631566166 -1 1 -1
121 25 1 0.099 1.4399888097262412 18.34810135352762 43.32601717006896 -1 0 -1
4241 849 1 0.099 2.6388427583706227 18.615632892304074 37.98054546428983 1 3 0
4207 842 2 -0.197 4.023571017352723 13.354162975107533 35.480348950780936 -1 1 -1
2026 406 1 0.099 0.5316311682649214 13.518507370659608 42.2667092221211 1 0 -1
1712 343 2 -0.197 4.345119144864395 22.38186689687484 37.820875976639876 2 1 0
4699 940 4 0.16 1.4046935472684148 15.088141238699551 36.1620832694265 1 -1 0
3776 756 1 0.099 5.568540786044751 17.619529236949376 35.852487787364325 2 0 0
4206 842 1 0.099 4.778055160108453 14.130813617887986 36.75106298949151 -1 1 -1
1711 343 1 0.099 4.133445797362394 22.06890197574675 39.49184398308997 2 1 0
4972 995 2 -0.197 5.522933920262413 15.220125754985498 39.875368464480545 2 0 0
20 4 5 0.29 4.724064013780724 12.343688490157405 40.15327284729861 -2 3 -2
176 36 1 0.099 1.1793747413335942 21.86713924237017 35.93001626481253 -3 0 -1
4243 849 3 -0.352 1.41404093825588 16.294729034566465 39.21818472065899 1 3 0
2027 406 2 -0.197 0.7652590028025186 13.11974130029013 40.63834551205637 1 0 -1
122 25 2 -0.197 2.6546151571144487 17.433372004615283 44.10902215202462 -1 0 -1
123 25 3 -0.352 3.5365350766114596 16.718429214204964 44.54183837650488 -1 0 -1
4691 939 1 0.099 4.7760177933744785 12.687265917889034 43.24927931849641 3 1 -2
2030 406 5 0.29 1.125687007690154 12.322934783332586 38.5689188933347 1 0 -1
18 4 3 -0.352 4.589516554850272 11.515426286924951 39.51098504291968 -2 3 -2
4974 995 4 0.16 3.4018368579943123 15.421750354561592 39.63794187406167 2 0 0
1714 343 4 0.16 2.6813938560126673 22.017603122817228 39.33043165523863 2 1 0
4971 995 1 0.099 4.118104959553511 14.829694472425073 40.59272994292113 2 0 0
4244 849 4 0.16 3.261052405311204 18.807436968143534 39.145111231382195 1 3 0
124 25 4 0.16 1.585129198824038 17.824414254353037 42.186765454618524 -1 0 -1
586 118 1 0.099 1.576819520326883 21.868797633867743 42.687421469894545 0 -1 0
4209 842 4 0.16 5.774276884194176 13.273839928730641 36.7304868465268 -1 1 -1
1157 232 2 -0.197 0.4065636126850293 18.96392180147434 34.68881741869625 0 0 1
3279 656 4 0.16 1.4206241801101531 15.723859992465341 33.65765271825342 -1 1 1
179 36 4 0.16 1.763625374832324 22.349905809949313 37.0125642536203 -3 0 -1
3016 604 1 0.099 5.464906764470808 21.506662141613443 33.57522608670872 4 2 2
3750 750 5 0.29 5.877405344220384 13.86500683473815 33.98010732167532 -1 0 0
4696 940 1 0.099 0.3688584127635437 14.284072023986857 36.20327471177526 1 -1 0
587 118 2 -0.197 0.9622989688816752 22.4909884928656 41.22630338808232 0 -1 0
3727 746 2 -0.197 5.151391233217206 32.87947221227287 10.712829367014203 -1 -1 -1
3139 628 4 0.16 2.1107696124334296 29.917628199242138 3.4044664933695903 0 0 -3
3100 620 5 0.29 2.831003725652978 25.022748997326453 0.6987917130299641 2 -3 0
3098 620 3 -0.352 2.547180362116839 24.04882264057337 1.0501924767701833 2 -3 0
2615 523 5 0.29 2.9976075574662713 24.681638838467386 5.6331861784291375 1 -2 0
3097 620 2 -0.197 2.013192911032317 23.03921568538931 1.484533915753087 2 -3 0
429 86 4 0.16 5.36709561059068 32.45779240025756 5.253811807016852 -2 -1 2
3730 746 5 0.29 2.9245591269261237 32.81816825864397 11.02241751277313 -1 -1 -1
4022 805 2 -0.197 0.4546488434731118 31.920891339687735 11.135658119635055 3 -1 0
362 73 2 -0.197 1.0485472827011737 31.465335393645915 2.083688529358542 -1 -2 3
2749 550 4 0.16 2.729157537969141 28.19324757614224 6.8128724621006445 0 1 0
365 73 5 0.29 2.801624818578243 31.969611012634864 0.6718346350038885 -1 -2 3
2612 523 2 -0.197 4.654143638765931 26.15252198604221 6.3191634952763245 1 -2 0
363 73 3 -0.352 2.0163932344570386 31.71199380108752 1.3698890833316835 -1 -2 3
1917 384 2 -0.197 4.849160847498464 28.307836031774773 10.612697331713894 -2 1 2
3140 628 5 0.29 4.118524192379754 30.909115529822703 6.882340727158957 0 0 -3
3137 628 2 -0.197 3.5991456504150823 29.80493520713904 4.999884349238496 0 0 -3
3138 628 3 -0.352 3.8441749498856836 30.256949156933334 6.108432194557509 0 0 -3
1820 364 5 0.29 2.6625670869538767 23.448791483501072 10.278599970430138 3 1 -1
3728 746 3 -0.352 4.009455124773565 33.018791165365 11.083737274442864 -1 -1 -1
3136 628 1 0.099 3.1064420631622713 29.05924060283813 3.569575613167031 0 0 -3
2611 523 1 0.099 5.707923117874846 27.326883674431826 6.879790529542171 1 -2 0
1916 384 1 0.099 3.855596851706158 27.004538586526266 11.153770753905413 -2 1 2
1589 318 4 0.16 5.681120060455179 27.870969585211256 2.0142446619880374 2 -3 0
36 8 1 0.099 5.27948985602378 22.70343869530091 3.92981248109238 -1 2 1
2613 523 3 -0.352 3.7874463346377336 25.380821352235273 5.9949051849988635 1 -2 0
2746 550 1 0.099 1.7148301661989478 27.913488151798223 7.668900711689991 0 1 0
1918 384 3 -0.352 5.564791215422582 29.23432251938655 10.327727023329844 -2 1 2
1586 318 1 0.099 5.641955959089038 26.79356753364995 2.713407909111966 2 -3 0
2770 554 5 0.29 0.5576503419806312 30.674662977655046 6.734419338048277 2 -3 -1
4910 982 5 0.29 4.245872307438158 22.881362941634432 7.94012201206709 2 -1 1
4142 829 2 -0.197 5.518210244752607 33.42303052338171 1.755940987021976 -2 -1 0
2518 504 3 -0.352 1.145836469046688 22.520808079450944 6.530678631748851 0 0 0
2517 504 2 -0.197 0.697100567805121 23.388509970873162 7.300141123054213 0 0 0
39 8 4 0.16 5.2383559795689765 23.637024938489798 4.823240359754051 -1 2 1
1818 364 3 -0.352 2.495931399697997 23.741027474670066 11.33704990632068 3 1 -1
4023 805 3 -0.352 1.3452550233205187 31.10768897557058 11.422353782833653 3 -1 0
130 26 5 0.29 3.7256638805436935 25.862160046911978 17.29828033320954 0 -1 -1
3403 681 3 -0.352 5.3000081903650855 24.98171280273935 21.055345197426227 0 -1 2
4153 831 3 -0.352 5.404100653955097 30.837147723424998 14.047591070232755 0 0 0
128 26 3 -0.352 3.170694627050528 26.5383013170582 17.899179576546558 0 -1 -1
4256 852 1 0.099 5.590570432341601 30.073490163949337 20.11801211478512 4 -2 1
422 85 2 -0.197 1.5254884486073192 31.662231089130447 20.236039799641812 1 -2 0
4155 831 5 0.29 4.738230946897745 30.74581599970645 13.254355815010197 0 0 0
126 26 1 0.099 2.4874100949443174 27.539459564605156 20.581045927590324 0 -1 -1
11 3 1 0.099 2.6623012887174817 28.58342176865376 14.836597931245253 0 -1 2
1703 341 3 -0.352 4.567539358570644 23.460905472330502 16.382575384343728 0 0 2
127 26 2 -0.197 2.8323917738839546 26.98126249378589 18.987379660936625 0 -1 -1