LAMMPS data file via write_data, version 29 Aug 2024, timestep = 1000000, units = real

6144 atoms
12 atom types
5632 bonds
11 bond types
9728 angles
19 angle types
12800 dihedrals
25 dihedral types
3072 impropers
6 improper types

2.4730791333422673 42.52692086664457 xlo xhi
2.4730791333422673 42.52692086664457 ylo yhi
2.4730791333422673 42.52692086664457 zlo zhi

Masses

1 12.011
2 12.011
3 15.999
4 12.011
5 1.008
6 1.008
7 1.008
8 1.008
9 1.008
10 1.008
11 1.008
12 1.008

Pair Coeffs # lj/charmmfsw/coul/long

1 0.078 3.65268 0.01 3.38542
2 0.032 3.56359 0.01 3.38542
3 0.192101 3.14487 0.192101 3.14487
4 0.078 3.65268 0.01 3.38542
5 0.024001 2.38761 0.024001 2.38761
6 0.024001 2.38761 0.024001 2.38761
7 0.024001 2.38761 0.024001 2.38761
8 0.045 2.38761 0.045 2.38761
9 0.045999 0.400014 0.045999 0.400014
10 0.024001 2.38761 0.024001 2.38761
11 0.024001 2.38761 0.024001 2.38761
12 0.024001 2.38761 0.024001 2.38761

Bond Coeffs # harmonic

1 222.5 1.538
2 428 1.42
3 222.5 1.538
4 322 1.111
5 322 1.111
6 322 1.111
7 309 1.111
8 545 0.96
9 322 1.111
10 322 1.111
11 322 1.111

Angle Coeffs # charmm

1 75.7 110.1 0 0
2 53.35 114 8 2.561
3 33.43 110.1 22.53 2.179
4 33.43 110.1 22.53 2.179
5 33.43 110.1 22.53 2.179
6 34.5 110.1 22.53 2.179
7 50 106 0 0
8 33.43 110.1 22.53 2.179
9 33.43 110.1 22.53 2.179
10 33.43 110.1 22.53 2.179
11 35.5 108.4 5.4 1.802
12 34.5 110.1 22.53 2.179
13 35.5 108.4 5.4 1.802
14 35.5 108.4 5.4 1.802
15 35.5 108.4 5.4 1.802
16 75.7 110.1 0 0
17 35.5 108.4 5.4 1.802
18 45.9 108.89 0 0
19 35.5 108.4 5.4 1.802

Dihedral Coeffs # charmmfsw

1 0.2 3 0 1
2 1.33 1 0 1
3 0.195 3 0 1
4 0.195 3 0 1
5 0.195 3 0 1
6 1.33 1 0 1
7 0.195 3 0 1
8 0.195 3 0 1
9 0.195 3 0 1
10 0.195 3 0 1
11 0.2 3 0 1
12 0 3 0 1
13 0.195 3 0 1
14 0.195 3 0 1
15 0.2 3 0 1
16 0.2 3 0 1
17 0.195 3 0 1
18 0.2 3 0 1
19 0.2 3 0 1
20 0.195 3 0 1
21 0.195 3 0 1
22 0.18 2 0 0
23 0.46 3 0 0
24 0.18 2 0 0
25 0.46 3 0 0

Improper Coeffs # harmonic

1 0 0
2 0 0
3 0 0
4 0 0
5 0 0
6 0 0

Atoms # full

1334 112 2 0.139 3.5347513338580585 6.159944838335644 9.761029913482119 3 0 1
1335 112 3 -0.641 4.597946418210715 6.3473477499585655 8.899983053792576 3 0 1
1613 135 5 0.09 6.663366312086446 7.813633705064085 7.484538036120545 1 0 1
1343 112 11 0.09 3.294630109349198 3.9797926651633437 9.774963793710702 3 0 1
5272 440 4 -0.268 2.7452547390518975 4.96426794297134 6.193502820173831 1 0 0
5271 440 3 -0.641 4.868241736215953 4.367742432848817 7.036174704258178 1 0 0
59 5 11 0.09 4.28762809770244 10.53582754967123 4.493571530504671 -1 -1 1
55 5 7 0.09 4.920008160456482 10.506268530590162 8.221091696875014 -1 -1 1
4879 407 7 0.09 7.218910846154904 7.436103695766989 12.168192948243245 1 0 1
49 5 1 -0.268 4.365378039249046 9.674409373394209 7.839974396999805 -1 -1 1
5275 440 7 0.09 4.462079228589634 6.8482308660286995 5.833274485073415 1 0 0
5866 489 10 0.09 2.7285647640182376 9.434926040696833 3.802918681762206 1 1 1
5277 440 9 0.408 5.4705085374891045 3.6088863897207233 6.7991285310238245 1 0 0
1617 135 9 0.408 6.8294839074943905 6.523289997658576 9.703880578077282 1 0 1
1340 112 8 0.09 2.544424740527356 6.096038316509702 9.199571777214164 3 0 1
5447 454 11 0.09 6.717684916470186 10.9900312975409 10.807207771892536 1 1 3
5446 454 10 0.09 5.245052327022889 11.817946971643021 11.208078193122985 1 1 3
53 5 5 0.09 4.899051156304781 8.752675812300122 7.818623436225905 -1 -1 1
1333 112 1 -0.268 3.434769636079714 7.384278437842288 10.722786079853666 3 0 1
54 5 6 0.09 3.585045551598242 9.549835172928969 8.687629356152772 -1 -1 1
5279 440 11 0.09 2.6799030422096792 5.837057078502234 6.875009451921267 1 0 0
1341 112 9 0.408 4.689143749439884 5.568177888477761 8.301725837305103 3 0 1
1650 138 6 0.09 3.0543523329922544 10.947080372110536 11.263137200877784 0 1 1
1344 112 12 0.09 3.1453617948099524 4.6068304276825 11.439965802464288 3 0 1
51 5 3 -0.641 2.975396932018531 11.255317171862165 6.6135041485382935 -1 -1 1
5860 489 4 -0.268 2.537958304419253 8.634806689521497 3.0687208474581604 1 1 1
5270 440 2 0.139 4.240864164823723 4.669209646808035 5.866169032109788 1 0 0
60 5 12 0.09 5.336060847660054 9.337948951605608 5.1794214912455745 -1 -1 1
5269 440 1 -0.268 4.8247904220607705 5.956930453805329 5.330255843024526 1 0 0
5276 440 8 0.09 4.313574192264399 3.8484559788119377 5.106529678640175 1 0 0
5274 440 6 0.09 5.910532775933493 5.956734025700733 5.494890061829572 1 0 0
1342 112 10 0.09 4.6833598436436255 4.5354644660019385 10.76614161882996 3 0 1
1336 112 4 -0.268 3.618351587588051 4.7821831399780725 10.479116575810355 3 0 1
5273 440 5 0.09 4.689227844420641 6.009393869395195 4.245877021270547 1 0 0
58 5 10 0.09 5.578988363278876 10.932605400579284 5.8876845384247165 -1 -1 1
56 5 8 0.09 3.037175071503465 9.257273595945652 6.125039261769373 -1 -1 1
5440 454 4 -0.268 6.285835254249426 12.01180444564674 10.842628366211082 1 1 3
1338 112 6 0.09 4.360866323626457 7.796604316861077 11.206430891300245 3 0 1
50 5 2 0.139 3.7082383052890666 10.031061330043222 6.489246049731116 -1 -1 1
52 5 4 -0.268 4.786226419208847 10.269988121227271 5.458395064677887 -1 -1 1
5868 489 12 0.09 2.5283147225854425 7.702635356079073 3.7051115291066274 1 1 1
1337 112 5 0.09 2.921597719836611 8.245547917435768 10.237566130135962 3 0 1
4877 407 5 0.09 6.483825801653895 9.012804469282852 12.4129888697975 1 0 1
1616 135 8 0.09 7.213576618184822 8.775826620195756 9.690139292090262 1 0 1
1339 112 7 0.09 2.7803747634887888 6.98870087042158 11.537631721770046 3 0 1
3827 319 11 0.09 5.300627591862066 3.0122411289102917 12.201850290544382 2 2 -1
3823 319 7 0.09 7.202860403648284 4.31734751931376 11.513922876874002 2 2 -1
1656 138 12 0.09 2.5011318998900727 12.261690996118507 9.235010626864469 0 1 1
5167 431 7 0.09 7.213722602227577 8.82241532852563 2.705239830088436 2 -1 1
4878 407 6 0.09 6.760956267725537 7.948771544063246 13.699561186989383 1 0 1
691 58 7 0.09 6.852363811742777 10.955009139356662 17.047857989285177 -1 2 0
5240 437 8 0.09 4.664541638988051 12.016910711134873 15.346978766472075 0 0 0
2583 216 3 -0.641 7.234505891397246 5.5713099886346935 17.29430590971835 1 -2 0
2404 201 4 -0.268 6.76015405158191 6.190856572036665 20.99941297680146 1 -1 1
690 58 6 0.09 5.369920993355337 10.008941929452746 16.872757419766728 -1 2 0
5656 472 4 -0.268 2.5134184424553885 11.399140683896489 21.700279628388824 2 1 2
2581 216 1 -0.268 5.39056040046656 4.027302680873099 17.700055921296176 1 -2 0
2587 216 7 0.09 5.279575451321481 4.381696592197329 18.750609902823122 1 -2 0
5439 454 3 -0.641 6.733739299426339 12.412633851654869 13.117603149711073 1 1 3
686 58 2 0.139 6.969398866606467 8.86885705018089 17.633722486554667 -1 2 0
2588 216 8 0.09 5.1552608042385755 6.0577914568074664 16.96045762555338 1 -2 0
2412 201 12 0.09 6.319944272084072 7.0289359258729265 20.445904387445466 1 -1 1
2584 216 4 -0.268 5.956815801675043 4.885977371510156 15.343550960381144 1 -2 0
2591 216 11 0.09 6.739406371299855 4.128607596338819 15.169731468049465 1 -2 0
5658 472 6 0.09 5.403132099194989 11.555596576519948 20.77683636555461 2 1 2
5653 472 1 -0.268 5.120485935635292 11.000877175181095 21.69903218299616 2 1 2
2590 216 10 0.09 5.057763471585568 4.423589043807626 14.92463971904449 1 -2 0
2582 216 2 0.139 5.92616546470687 5.229395633241971 16.790478915301538 1 -2 0
2410 201 10 0.09 7.245618203047743 5.499422326741953 20.268012996321104 1 -1 1
2585 216 5 0.09 6.102388390583432 3.2374814300091916 17.684983956907125 1 -2 0
845 71 5 0.09 2.7103530369199254 5.232845951237616 15.709740023088894 1 0 2
2592 216 12 0.09 6.17159935359245 5.873233675952529 14.77623107409382 1 -2 0
5445 454 9 0.408 7.22497175920555 11.56501180835356 13.228623097795582 1 1 3
5654 472 2 0.139 3.733659528913549 10.369380145248204 21.68818111866614 2 1 2
689 58 5 0.09 5.882296996321008 10.614944762657407 18.48754000433849 -1 2 0
1019 85 11 0.09 3.762461564087354 7.017564416583297 19.834019965763588 0 0 2
2403 201 3 -0.641 4.9389044746096795 6.532905857807085 22.45068209954182 1 -1 1
1018 85 10 0.09 2.7752791860536963 6.207842446082097 18.495628792770425 0 0 2
687 58 3 -0.641 7.3453657564567285 8.402552359101858 16.33653225238917 -1 2 0
5244 437 12 0.09 2.8357576555922335 12.35139459381187 17.01372429729598 0 0 0
2586 216 6 0.09 4.4444269916055745 3.7135736723262966 17.230908445647763 1 -2 0
692 58 8 0.09 6.33466409661095 8.043565705763356 18.172048105415172 -1 2 0
5659 472 7 0.09 5.922078486898591 10.272992211466171 21.889018747382778 2 1 2
5660 472 8 0.09 3.7038782772295833 9.7981421245976 20.837062714747628 2 1 2
685 58 1 -0.268 6.2348092032816 10.194311657399966 17.507090445081843 -1 2 0
1012 85 4 -0.268 2.734293124742037 6.825386878459701 19.42424162529289 0 0 2
2434 203 10 0.09 3.3175871442772413 2.8483588709786725 21.568660012705948 1 1 1
4873 407 1 -0.268 7.221539451478582 8.328853258426179 12.831712469050816 1 0 1
2402 201 2 0.139 5.70900212484915 5.504514295796152 21.86130288554648 1 -1 1
2408 201 8 0.09 5.000272180767632 4.8378237374001 21.21467664624531 1 -1 1
1015 85 7 0.09 2.562833584765029 7.616811391705698 21.943897977303106 0 0 2
2248 188 4 -0.268 3.6031688113675537 5.74367105867776 30.24533142456994 0 1 -2
2256 188 12 0.09 2.860255306380291 6.412802754328641 30.813430060971005 0 1 -2
5259 439 3 -0.641 5.288395560242085 10.862545487295137 25.034840989596418 1 1 0
5257 439 1 -0.268 5.523067280906579 8.536932851775976 25.681546610529725 1 1 0
5266 439 10 0.09 3.0874096068594428 9.519708911076673 27.283557752068713 1 1 0
5260 439 4 -0.268 3.377721997461453 9.99048070076606 26.346375877634415 1 1 0
2252 188 8 0.09 4.0725047429525265 6.933051418374929 28.667152973913694 0 1 -2
8 1 8 0.09 2.754801732485166 10.27249074499758 29.973920943642945 1 0 1
5264 439 8 0.09 5.41813794947538 10.232329355392814 26.96389701275724 1 1 0
5263 439 7 0.09 4.965850153650341 8.168257170342542 24.805072957862848 1 1 0
5258 439 2 0.139 4.896354737688327 9.91516270122252 26.060117515799043 1 1 0
3 1 3 -0.641 3.2777192234094246 11.239872650224346 31.69314758276418 1 0 1
1 1 1 -0.268 4.7088793642803335 11.396355743506836 29.77946104525841 1 0 1
2255 188 11 0.09 3.17283174618694 4.990156256475423 29.500396516648195 0 1 -2
2401 201 1 -0.268 6.46492849699076 4.705371381236169 22.94054880225775 1 -1 1
2247 188 3 -0.641 5.5675599189743945 5.610933702274432 29.09107379483147 0 1 -2
2246 188 2 0.139 4.616409160382501 6.550133651969043 29.546269009924867 0 1 -2
2 1 2 0.139 3.2403431865391856 11.245581269920457 30.272253904960213 1 0 1
2409 201 9 0.408 4.163453033230934 6.115206768812666 22.853265700952324 1 -1 1
9 1 9 0.408 4.078738522620313 11.672476301897547 32.02923043445489 1 0 1
5655 472 3 -0.641 3.6082655080175803 9.586180777596677 22.845255630086026 2 1 2
6 1 6 0.09 4.76222744040779 11.731281854847532 28.692644760061523 1 0 1
2251 188 7 0.09 6.058995806137997 8.134994730540603 29.746741133566175 0 1 -2
3003 251 3 -0.641 6.431222921924852 2.921968276962342 29.754100187362003 -1 0 1
5267 439 11 0.09 2.6912932360146575 9.57080108625276 25.55297584851205 1 1 0
3643 304 7 0.09 3.400721263759803 4.4465097096703765 27.20957533654454 0 0 2
2245 188 1 -0.268 5.2698289291332 7.693553930181812 30.3384493741431 0 1 -2
5261 439 5 0.09 5.160264734829957 7.897029864049595 26.5185630975959 1 1 0
2249 188 5 0.09 5.7918742175090845 7.366958652530521 31.21938334953255 0 1 -2
2254 188 10 0.09 4.044699094178255 5.127400004486189 30.95312567875833 0 1 -2
3009 251 9 0.408 6.183598263938539 3.7778292413085106 29.328133472351517 -1 0 1
5265 439 9 0.408 4.656474951168326 10.649537115168327 24.346090880737783 1 1 0
2250 188 6 0.09 4.594237816620151 8.42798507204348 30.624794517639888 0 1 -2
3645 304 9 0.408 3.0537544693197534 4.452134623991557 24.542848630927324 0 0 2
3644 304 8 0.09 3.144684529362496 6.656011859398853 26.318042792169948 0 0 2
2405 201 5 0.09 5.697119773058732 4.397972311882318 23.652977727663124 1 -1 1
3250 271 10 0.09 7.3696770605240705 11.695141301007295 29.89009937879473 1 -1 0
7 1 7 0.09 5.278701224209521 10.368836168429526 30.01230520383807 1 0 1
2253 188 9 0.408 6.352635661980425 6.185268049195111 28.759899918012415 0 1 -2
5 1 5 0.09 5.187684757636514 12.23516336326686 30.361371005743912 1 0 1
5661 472 9 0.408 4.187021595113922 8.80985572120033 22.634692614963193 2 1 2
3639 304 3 -0.641 3.41424881720684 5.296584995134019 24.659498065115667 0 0 2
5268 439 12 0.09 3.0154329390364336 11.010964698591206 26.34991160941623 1 1 0
2406 201 6 0.09 7.346473672007592 5.266734552656651 23.393759104811398 1 -1 1
3638 304 2 0.139 2.659090342264354 5.805414704491986 25.739251211574707 0 0 2
5262 439 6 0.09 6.606918768875359 8.580631324083086 25.525300773827144 1 1 0
5505 459 9 0.408 6.967845390410604 11.437091754497864 25.57248806917032 0 2 1
3671 306 11 0.09 7.415938768609058 5.336768459022891 26.476027819307788 2 0 -1
2436 203 12 0.09 4.535729871077103 3.1008181866049394 22.761100392785988 1 1 1
3930 328 6 0.09 6.112573380622342 9.70193815633273 32.15970452462011 1 1 1
142 12 10 0.09 4.489180057324302 2.715345957496597 31.167123100224718 0 -1 0
3006 251 6 0.09 4.472888689708359 2.663462061305978 27.896866016498098 -1 0 1
136 12 4 -0.268 4.381897058390336 2.6858635405395734 32.28446406777883 0 -1 0
5663 472 11 0.09 2.596426147023897 12.158036261330507 22.57699721424765 2 1 2
5657 472 5 0.09 5.136898194996899 11.707504460870068 22.536498410879116 2 1 2
5501 459 5 0.09 7.464113638915974 10.144022491919646 23.573380127975433 0 2 1
2407 201 7 0.09 6.959436490048276 3.7837125246242316 22.532891860803765 1 -1 1
2042 171 2 0.139 4.215597184329328 6.943983150924107 35.52598894231117 0 1 0
2043 171 3 -0.641 4.9657716671709125 6.243522430103502 36.444667666831265 0 1 0
2052 171 12 0.09 3.3711178058479963 8.933350290028162 35.47497855595026 0 1 0
3499 292 7 0.09 3.241390630005393 12.292139489955682 38.1666570467077 0 1 1
4683 391 3 -0.641 2.5711765434655915 6.0526324320152725 38.01243289869832 1 0 0
137 12 5 0.09 6.504490877423581 3.6997134734133876 34.75385170938839 0 -1 0
5170 431 10 0.09 5.374068346243075 9.322307916010956 40.662661355524534 2 -1 0
4341 362 9 0.408 6.7236367433250575 6.9868528609584075 36.72692452952671 -1 2 1
5162 431 2 0.139 7.4286321066021275 8.841898573460217 40.57781756522941 2 -1 0
5164 431 4 -0.268 6.034294881447574 8.435774436999772 40.453202086950036 2 -1 0
2048 171 8 0.09 3.255762545595524 6.4086765434665365 35.42539669891037 0 1 0
139 12 7 0.09 4.670694899997892 3.6296945414486927 34.721378450883996 0 -1 0
2050 171 10 0.09 4.868831421161191 8.776637545930232 36.464866853310525 0 1 0
2041 171 1 -0.268 5.016028163727577 6.917302843774315 34.235793851872344 0 1 0
4685 391 5 0.09 3.7998516236632325 4.499906897053583 40.71308366873806 1 0 0
2044 171 4 -0.268 3.957302399291589 8.315339234190198 36.17547030863427 0 1 0
2051 171 11 0.09 3.291825437583398 8.26140407277514 37.118511499498254 0 1 0
134 12 2 0.139 5.654673052621356 3.102403145921314 32.88488222242586 0 -1 0
4691 391 11 0.09 3.4775889329104723 3.4329339344643968 37.786385580961365 1 0 0
2046 171 6 0.09 6.062992971067717 7.406377527561349 34.23648614393993 0 1 0
4681 391 1 -0.268 3.862352597242676 5.245348315395177 39.81424928273918 1 0 0
5165 431 5 0.09 7.336027110929569 10.459594274451316 41.91960886154287 2 -1 0
5171 431 11 0.09 5.643746665887459 7.569073912907291 41.046334788878696 2 -1 0
4687 391 7 0.09 4.776951658529486 4.987330440493878 39.19443148698793 1 0 0
2045 171 5 0.09 5.026411913114879 5.860093157999076 33.85057050604162 0 1 0
3503 292 11 0.09 5.428191418085227 10.611161918189946 38.34978955362962 0 1 1
5172 431 12 0.09 5.899083339478669 8.10564170264032 39.36458042842932 2 -1 0
3496 292 4 -0.268 5.735616687243635 11.625263177877303 38.54988018648303 0 1 1
3931 328 7 0.09 6.1412671573376745 9.528533986113324 33.94931281750941 1 1 1
4682 391 2 0.139 2.586666608498303 5.058260559580065 39.02223789606402 1 0 0
2049 171 9 0.408 4.346720449344628 5.995436438676368 37.09543169909484 0 1 0
1127 94 11 0.09 5.769193077299513 2.6028127036096254 40.68848930820397 1 0 0
2047 171 7 0.09 4.476109887817219 7.565063711162151 33.47997200919294 0 1 0
3497 292 5 0.09 3.6332162548086764 11.25882613879536 36.6538799361367 0 1 1
5867 489 11 0.09 3.3884987050042135 8.560874048753712 42.411444608603624 1 1 0
3926 328 2 0.139 7.244393578071815 11.304888566201646 33.195113056127184 1 1 1
3502 292 10 0.09 6.862458854833671 11.724537870330161 38.62363753963548 0 1 1
3504 292 12 0.09 5.144599105222856 11.894000569338237 39.50331886766255 0 1 1
4686 391 6 0.09 3.9491022945094567 6.257807817328675 40.118852102882016 1 0 0
3925 328 1 -0.268 6.748279445639689 9.831078979291942 33.09937705992207 1 1 1
4337 362 5 0.09 7.141271731234141 4.581534140743036 37.3717950262449 -1 2 1
3493 292 1 -0.268 3.7506452547303963 12.26562620070638 37.139402883043665 0 1 1
133 12 1 -0.268 5.603195801353521 3.0825251786081087 34.43932170406855 0 -1 0
3927 328 3 -0.641 6.05549358368917 12.137077933735073 33.30149480828776 1 1 1
140 12 8 0.09 5.954017222054533 4.1786464150129365 32.62103267352422 0 -1 0
4684 391 4 -0.268 2.4859388310233976 3.7699816263046566 38.291923103737304 1 0 0
143 12 11 0.09 3.53947063228871 3.2098245295057075 32.56730075921045 0 -1 0
3500 292 8 0.09 5.783738140047149 12.427959167440171 36.52442748929271 0 1 1
3612 301 12 0.09 6.264277193829336 20.30424399646217 10.105933176055064 0 0 -1
1967 164 11 0.09 6.037688606911005 19.184034108382228 2.813358617142726 1 1 2
1097 92 5 0.09 2.767393739158915 16.53169616868319 6.1675786502767735 1 0 0
1103 92 11 0.09 5.497426160654821 13.690365230321069 6.589350323629621 1 0 0
3608 301 8 0.09 4.196243080911925 21.742665047393622 9.650198556603446 0 0 -1
3610 301 10 0.09 5.837513689684685 20.181032834898755 8.389139205984478 0 0 -1
1099 92 7 0.09 3.932715887235374 16.91279394767173 7.611493213448975 1 0 0
3604 301 4 -0.268 5.482420273802292 19.94780765282214 9.457552356302266 0 0 -1
3601 301 1 -0.268 3.1211100849612468 20.252748740587105 8.42924644677486 0 0 -1
5441 454 5 0.09 6.815727541592103 14.660310853475712 10.644085099007949 1 1 3
5443 454 7 0.09 5.547121181415717 14.365453728547632 11.865531732046602 1 1 3
3609 301 9 0.408 4.101464585569586 20.681055136328727 11.531098812782126 0 0 -1
4518 377 6 0.09 4.092734055183117 17.245154563122263 11.808367495051968 1 -1 -1
3611 301 11 0.09 5.379161225158612 18.843089505487175 9.483315983032966 0 0 -1
1094 92 2 0.139 3.6229523626465117 14.757826120314197 6.893276631647807 1 0 0
1095 92 3 -0.641 3.2009697495039915 14.160428231371876 5.65008103635307 1 0 0
4513 377 1 -0.268 3.2564983929753595 16.67496202250481 12.216442761607484 1 -1 -1
3602 301 2 0.139 4.094276098709913 20.608083008380046 9.609468308697263 0 0 -1
5437 454 1 -0.268 6.663200959569058 14.325274038384187 11.678989565285491 1 1 3
1963 164 7 0.09 7.405942695898683 21.17080260734316 3.406563603733228 1 1 2
645 54 9 0.408 3.223714313009654 14.69970335997776 3.244715586652662 1 1 1
3605 301 5 0.09 3.652103615430028 20.47169688440298 7.465821858707537 0 0 -1
1102 92 10 0.09 5.345037779560716 14.570372453578283 8.20668600988273 1 0 0
4519 377 7 0.09 3.1274770999075336 15.659058571935779 11.783081040043147 1 -1 -1
5442 454 6 0.09 7.042986707443533 15.022062705157353 12.397578626129013 1 1 3
1096 92 4 -0.268 4.807290131661121 13.95028203171163 7.4273444480326924 1 0 0
1101 92 9 0.408 2.9663803004879328 13.22616886541336 5.91930816585139 1 0 0
1093 92 1 -0.268 3.75092070767775 16.291325339543555 6.695449536796252 1 0 0
3607 301 7 0.09 2.880146717764826 19.130541976991005 8.469918007404189 0 0 -1
5897 492 5 0.09 5.204280528705901 21.768473318836648 6.968517103190269 0 -1 -2
1100 92 8 0.09 2.777334629941076 14.635120875785487 7.631765113291973 1 0 0
1104 92 12 0.09 4.522103461753038 12.923659974976657 7.836745652989465 1 0 0
1098 92 6 0.09 4.582689378356092 16.50831556029371 5.976232305449724 1 0 0
3603 301 3 -0.641 3.609253738189043 20.212674413343116 10.882623337449381 0 0 -1
5438 454 2 0.139 7.101474839783173 12.850357703055886 11.81560926790956 1 1 3
3476 290 8 0.09 3.120247993590759 18.73182805722447 2.6812561679898232 2 0 -1
639 54 3 -0.641 3.039997818951848 15.235949899022895 2.4887713288090327 1 1 1
4521 377 9 0.408 2.4803105877903935 18.676907002948546 10.684778333018912 1 -1 -1
5448 454 12 0.09 6.327065839907789 12.487235501299837 9.845635818035257 1 1 3
1649 138 5 0.09 3.0289472058999363 12.495790396044942 12.118280024683386 0 1 1
3462 289 6 0.09 5.258197353463987 15.528783972655297 22.14970953800209 2 1 -1
2938 245 10 0.09 3.4541700005360156 19.860976406401292 14.290601741296353 1 -2 1
1078 90 10 0.09 2.514305211043287 15.533255941206752 18.852021692902067 0 2 0
3443 287 11 0.09 7.403188768704371 19.18449981692067 16.498201690328337 2 1 0
3463 289 7 0.09 5.082597108463221 13.72110997566551 22.047498350646304 2 1 -1
3440 287 8 0.09 5.879133501170635 17.40972549718133 16.792888998760922 2 1 0
2929 245 1 -0.268 6.399689852221974 21.391284059217845 15.075930126744915 1 -2 1
3465 289 9 0.408 6.406590641442481 15.596259308498086 18.75189044291858 2 1 -1
2948 246 8 0.09 3.5367782863609167 17.33060598035503 20.4853315531985 0 1 -1
5237 437 5 0.09 3.664282910625281 14.847932387802427 14.879603589262898 0 0 0
3464 289 8 0.09 6.008572919802534 13.730588111320042 19.9553622621834 2 1 -1
2939 245 11 0.09 4.463040679498463 20.06029854633888 15.931606898767836 1 -2 1
3457 289 1 -0.268 5.018324307722371 14.617395949769564 21.502976382808935 2 1 -1
2930 245 2 0.139 5.0499035651433175 21.486070949459975 14.380078264682542 1 -2 1
2933 245 5 0.09 6.4019429092137585 21.472339095989337 16.205379630022783 1 -2 1
2941 246 1 -0.268 4.408785973920136 18.89800144947209 19.24263280650938 0 1 -1
2949 246 9 0.408 5.739914896416941 17.407339058718414 20.770540678687397 0 1 -1
2946 246 6 0.09 4.933135455686505 19.874304524933336 19.447407367148497 0 1 -1
2940 245 12 0.09 5.129026228368814 19.25761655394361 14.375144554119755 1 -2 1
4517 377 5 0.09 3.5283726662597474 16.512236669615817 13.3146309549295 1 -1 -1
6143 512 11 0.09 5.128185643477027 22.07020919470204 20.752529818298857 0 -2 0
5239 437 7 0.09 4.259893843725896 13.534358364218257 13.687649709363884 0 0 0
3435 287 3 -0.641 7.062345821059178 15.82659320575275 17.04862783113005 2 1 0
2950 246 10 0.09 3.1391931674730915 18.84251187776212 22.497202343299946 0 1 -1
2945 246 5 0.09 5.009126173988157 18.18987228961037 18.58645044799248 0 1 -1
5241 437 9 0.408 6.132262723243044 13.311905108848928 14.957721040347856 0 0 0
3441 287 9 0.408 6.615455990147842 15.191334146732009 16.467799349698858 2 1 0
2931 245 3 -0.641 5.287717167796021 21.60772506421286 13.015488722180018 1 -2 1
2943 246 3 -0.641 5.237071475120443 18.031895725677565 21.285439076439218 0 1 -1
5233 437 1 -0.268 3.6701505281372473 13.778418962437897 14.656629243253606 0 0 0
3458 289 2 0.139 6.149027439639299 14.736365364221196 20.45902374142575 2 1 -1
3461 289 5 0.09 4.00099002333311 14.757042844955947 21.058244980921426 2 1 -1
2936 245 8 0.09 4.395487558833418 22.33489473664757 14.66899408036159 1 -2 1
3459 289 3 -0.641 5.85782904229616 15.791748921017847 19.544667522408677 2 1 -1
5242 437 10 0.09 3.434905900076795 14.011854576051025 17.37348411412345 0 0 0
5235 437 3 -0.641 5.743370889499246 13.695055938907753 15.799557950552133 0 0 0
5234 437 2 0.139 4.47343810007231 13.020527533943087 15.714377095526693 0 0 0
2942 246 2 0.139 4.004431744508708 18.279960452361507 20.61003577623752 0 1 -1
3434 287 2 0.139 6.862948561259706 17.039986460746693 16.471144226905793 2 1 0
3433 287 1 -0.268 6.915631834669187 16.86973713889129 14.905980375536892 2 1 0
5236 437 4 -0.268 3.7532521445659475 13.00402209194837 17.07596224162465 0 0 0
2934 245 6 0.09 7.062087427211 22.18948445990572 14.553836310686409 1 -2 1
2932 245 4 -0.268 4.4864365740941246 20.088089837859 14.757102472526643 1 -2 1
2935 245 7 0.09 6.913454518064521 20.480259438680353 14.842566415764393 1 -2 1
2947 246 7 0.09 3.5615078702283856 19.163867794388405 18.647700322975535 0 1 -1
5238 437 6 0.09 2.6342740626847476 13.468479440314455 14.505768144407435 0 0 0
2944 246 4 -0.268 3.078305697609155 19.150157598457845 21.451024895303842 0 1 -1
3437 287 5 0.09 6.0079264938196815 16.341166914571424 14.70075624547284 2 1 0
3439 287 7 0.09 7.042672066778163 17.830058797877385 14.340394158147058 2 1 0
2952 246 12 0.09 3.510026709087175 20.17206073429505 21.553389213037303 0 1 -1
5243 437 11 0.09 4.431352194285402 12.488201540683894 17.79635203077627 0 0 0
422 36 2 0.139 5.154804329105711 15.928063427170654 27.693524794826764 0 0 -1
1850 155 2 0.139 4.2700725826121 20.22729537094953 30.472658652109608 -1 -1 0
2076 173 12 0.09 7.058238995526951 17.281367403880235 25.50416330937673 0 2 2
1851 155 3 -0.641 3.860738516899853 19.458379348187595 29.35999436339006 -1 -1 0
426 36 6 0.09 3.740647836805319 14.687370653053822 26.601747808529932 0 0 -1
2069 173 5 0.09 6.023596149962084 19.17741658050744 26.978523470738544 0 2 2
425 36 5 0.09 5.226872269539857 15.125363755561914 25.636979364996055 0 0 -1
2072 173 8 0.09 4.895597049527298 18.373506477513406 24.550741891264984 0 2 2
1849 155 1 -0.268 5.784707014617563 19.988213736498178 30.680091981932048 -1 -1 0
6141 512 9 0.408 5.460318949037088 21.498662694496474 23.684144945163276 0 -2 0
423 36 3 -0.641 4.287622703109409 17.004478093465195 27.403665853364352 0 0 -1
2071 173 7 0.09 6.991495503966475 20.323178516410188 25.762411915231887 0 2 2
421 36 1 -0.268 4.836382538680175 14.763653481316938 26.636115415070392 0 0 -1
424 36 4 -0.268 5.01941248896347 15.558834601618576 29.09763385213623 0 0 -1
2073 173 9 0.408 5.576185877837766 19.24143056959265 22.782101912908697 0 2 2
1854 155 6 0.09 6.1646328102169266 20.523188218670732 29.826723249864077 -1 -1 0
431 36 11 0.09 4.810080972750976 14.486195699310215 29.071833428783556 0 0 -1
1853 155 5 0.09 6.117267380868501 20.42313826882715 31.628800381023556 -1 -1 0
1855 155 7 0.09 6.016846155935781 18.8949799455898 30.8114771230261 -1 -1 0
428 36 8 0.09 6.235153056758561 16.144139788685216 27.398863706881613 0 0 -1
2360 197 8 0.09 3.208663988717103 21.204776958481073 25.166751562165654 1 -1 0
1857 155 9 0.408 2.927403726650629 19.63138119359733 29.154861059012614 -1 -1 0
1856 155 8 0.09 3.9979973178222075 21.251880214949914 30.265189790524655 -1 -1 0
2065 173 1 -0.268 5.9700792121988915 19.723825057044568 25.947184566103665 0 2 2
1852 155 4 -0.268 3.5057227551685255 19.530148849452367 31.629297054657965 -1 -1 0
2066 173 2 0.139 5.882062810647204 18.906112334568657 24.68158874022897 0 2 2
427 36 7 0.09 5.2258043918269514 13.779724017180984 26.900540082563282 0 0 -1
11 1 11 0.09 2.8936831710324262 13.35743647722692 30.655047006522555 1 0 1
432 36 12 0.09 4.17113659174346 16.161428228536337 29.54570361249499 0 0 -1
2070 173 6 0.09 5.0288456556317875 20.40692184913484 25.941858418115178 0 2 2
429 36 9 0.408 4.400946594321013 17.644940401456736 28.10308547367125 0 0 -1
2068 173 4 -0.268 6.998354527899555 17.817715271851345 24.5624449573336 0 2 2
430 36 10 0.09 5.917920397940033 15.647384972183449 29.678261868453877 0 0 -1
6140 512 8 0.09 7.088666101964998 22.256245185856677 22.65560856216766 0 -2 0
4975 415 7 0.09 6.3216647576365155 16.710048848248434 31.729099766146255 2 0 -1
1858 155 10 0.09 3.7412635334086155 18.461559656854206 31.78162915719879 -1 -1 0
2067 173 3 -0.641 5.917254085039053 19.731627070613488 23.529710786768366 0 2 2
6135 512 3 -0.641 5.077196204562152 22.32982847490978 23.428525842313498 0 -2 0
4974 415 6 0.09 5.553491171570828 15.088410531919092 32.15508826025925 2 0 -1
2354 197 2 0.139 2.633184003196954 22.11815961619083 25.485939862291477 1 -1 0
2075 173 11 0.09 7.052257456139346 17.29840641143065 23.646913247172552 0 2 2
10 1 10 0.09 2.7851673694589 12.825798416310048 28.920737578211053 1 0 1
4 1 4 -0.268 2.528958050827262 12.542144298750491 29.98256305234083 1 0 1
4044 337 12 0.09 5.7529970730886255 18.56570454726328 38.073851183687616 0 0 1
5352 446 12 0.09 6.314669989502384 14.825801056825966 40.65257881946986 2 -1 -1
638 54 2 0.139 3.1669716629680997 14.433325143066291 41.342840748127195 1 1 0
4042 337 10 0.09 6.809440161621836 17.306236990435675 37.265443955474694 0 0 1
4038 337 6 0.09 5.967336234963835 18.37120189381982 35.084135142303914 0 0 1
1966 164 10 0.09 5.348246316869981 20.21192172411979 41.54270055903721 1 1 1
4977 415 9 0.408 5.941062541790252 15.517779212126243 35.15892356619166 2 0 -1
1968 164 12 0.09 6.0401659609006035 18.53833159894634 41.15455502418857 1 1 1
5350 446 10 0.09 5.81452220119053 16.297449674686163 41.67195919670979 2 -1 -1
4040 337 8 0.09 3.755548336311311 17.889969706731733 37.14985372457729 0 0 1
4036 337 4 -0.268 5.786601011224116 17.543500028805056 37.69067747568576 0 0 1
4035 337 3 -0.641 4.516224422605275 16.334919300167243 36.000175601293165 0 0 1
644 54 8 0.09 4.121168215755172 13.899707692084478 41.29245236888113 1 1 0
3498 292 6 0.09 3.316177039252355 13.06987018344019 36.47048043702833 0 1 1
4039 337 7 0.09 5.051159254364081 19.608371223683836 35.84506122729682 0 0 1
4976 415 8 0.09 7.45104877944087 16.61230096054265 34.090285048352634 2 0 -1
4973 415 5 0.09 5.1854274866549055 16.654050489937966 33.156408461238875 2 0 -1
3933 328 9 0.408 6.372357286976738 12.99097755474983 33.488367806278724 1 1 1
4971 415 3 -0.641 6.484921362120802 14.902019893787815 34.53387074684458 2 0 -1
4043 337 11 0.09 5.607249237985629 16.86764056929843 38.5148878816547 0 0 1
4034 337 2 0.139 4.674241687144112 17.56662622829451 36.62389773922298 0 0 1
3494 292 2 0.139 5.179740286979086 12.613762887199032 37.45761821160523 0 1 1
4033 337 1 -0.268 4.923987741620406 18.556788197425284 35.43311999288982 0 0 1
3501 292 9 0.408 4.95442110200796 14.544051733015994 37.41415183547022 0 1 1
5344 446 4 -0.268 6.418765517334367 15.345670075435805 41.658206291376665 2 -1 -1
3495 292 3 -0.641 5.204923386385923 13.926826617298024 38.067358987817165 0 1 1
5758 480 10 0.09 3.1565239542115346 14.594991728376758 34.322307197851615 0 0 2
641 54 5 0.09 3.206277985748715 15.036897219275632 39.28699637934566 1 1 0