LAMMPS data file via write_data, version 29 Aug 2024, timestep = 1000000, units = real

6656 atoms
13 atom types
6656 bonds
13 bond types
12800 angles
25 angle types
16896 dihedrals
33 dihedral types
4096 impropers
8 improper types

1.581083428051464 43.418916571957155 xlo xhi
1.581083428051464 43.418916571957155 ylo yhi
1.581083428051464 43.418916571957155 zlo zhi

Masses

1 12.011
2 12.011
3 12.011
4 15.999
5 12.011
6 1.008
7 1.008
8 1.008
9 1.008
10 1.008
11 1.008
12 1.008
13 1.008

Pair Coeffs # lj/charmmfsw/coul/long

1 0.06 3.59923 0.01 3.38542
2 0.06 3.59923 0.01 3.38542
3 0.06 3.59923 0.01 3.38542
4 0.1 2.93997 0.1 2.93997
5 0.06 3.59923 0.01 3.38542
6 0.035 2.38761 0.035 2.38761
7 0.035 2.38761 0.035 2.38761
8 0.035 2.38761 0.035 2.38761
9 0.035 2.38761 0.035 2.38761
10 0.035 2.38761 0.035 2.38761
11 0.035 2.38761 0.035 2.38761
12 0.035 2.38761 0.035 2.38761
13 0.035 2.38761 0.035 2.38761

Bond Coeffs # harmonic

1 195 1.53
2 195 1.53
3 350 1.425
4 195 1.53
5 307 1.1
6 307 1.1
7 307 1.1
8 307 1.1
9 307 1.1
10 307 1.1
11 307 1.1
12 307 1.1
13 350 1.425

Angle Coeffs # charmm

1 58 109.5 11.16 2.561
2 45 111.1 0 0
3 58 109.5 11.16 2.561
4 35 111.4 22.53 2.179
5 35 111.4 22.53 2.179
6 35 111.4 22.53 2.179
7 35 111.4 22.53 2.179
8 35 111.4 22.53 2.179
9 35 111.4 22.53 2.179
10 35 111.4 22.53 2.179
11 35 111.4 22.53 2.179
12 70 107.3 0 0
13 35 111.4 22.53 2.179
14 70 107.3 0 0
15 45 111.1 0 0
16 70 107.3 0 0
17 35 111.4 22.53 2.179
18 38.5 106.8 5.4 1.802
19 35 111.4 22.53 2.179
20 38.5 106.8 5.4 1.802
21 70 107.3 0 0
22 38.5 106.8 5.4 1.802
23 35 111.4 22.53 2.179
24 38.5 106.8 5.4 1.802
25 95 111 0 0

Dihedral Coeffs # charmmfsw

1 0 3 0 1
2 0.41 3 180 1
3 0.19 3 0 1
4 0.19 3 0 1
5 0.5 3 0 1
6 0.19 3 0 1
7 0.19 3 0 1
8 0.19 3 0 1
9 0.19 3 0 1
10 0.19 3 0 1
11 0.19 3 0 1
12 0.19 3 0 1
13 0.19 3 0 1
14 0.19 3 0 1
15 0.19 3 0 1
16 0.19 3 0 1
17 0.19 3 0 1
18 0.19 3 0 1
19 0.3 3 0 1
20 0.3 3 0 1
21 0.19 3 0 1
22 0.19 3 0 1
23 0.19 3 0 1
24 0 3 0 1
25 0.5 3 0 1
26 0.19 3 0 1
27 0.19 3 0 1
28 0.19 3 0 1
29 0.19 3 0 1
30 0.19 3 0 1
31 0.19 3 0 1
32 0.3 3 0 1
33 0.3 3 0 1

Improper Coeffs # harmonic

1 0 0
2 0 0
3 0 0
4 0 0
5 0 0
6 0 0
7 0 0
8 0 0

Atoms # full

1904 147 6 0.09 3.800083562068378 4.49298194568591 7.977611587974494 -1 2 -3
6195 477 7 0.09 6.101104738409829 1.9670884647906652 8.77053012810542 -2 -1 0
6534 503 8 0.09 4.18433783182412 11.540898095905254 9.634742074242018 3 -1 4
5594 431 4 -0.4 5.910317118624669 5.899065136230381 2.9787789328544743 0 -1 0
1899 147 1 -0.178 3.530324638934777 5.455040076745009 8.306803923130442 -1 2 -3
364 28 13 0.09 2.404755959676619 3.6826464678786244 2.74032997666687 3 2 1
6528 503 2 -0.178 3.8990760528643538 11.407224655931882 10.637383099226746 3 -1 4
3457 266 12 0.09 2.144479907756674 2.243963318447139 9.365865436873214 1 1 -2
6157 474 8 0.09 6.597261251313502 9.831795446789146 4.782559767834728 -1 -3 -1
6530 503 4 -0.4 2.449384985990201 9.898771008771105 11.876840408828565 3 -1 4
6529 503 3 0.018 2.3893443827603735 10.95607807278978 10.7779062180729 3 -1 4
357 28 6 0.09 4.105911778094152 3.1257227442239905 3.854934507067553 3 2 1
1910 147 12 0.09 5.137271515483539 5.940444002956446 9.737745086798864 -1 2 -3
5599 431 9 0.09 5.370910303668682 7.240026839744188 6.051728446975592 0 -1 0
6538 503 12 0.09 3.749192804512695 8.486915347444283 10.967660026804095 3 -1 4
5598 431 8 0.09 6.752450363806613 7.706019869527336 5.033765383163651 0 -1 0
1908 147 10 0.09 2.5210280110743764 8.438707245050937 8.262110210590684 -1 2 -3
5600 431 10 0.09 5.046828723891773 7.696257942425519 3.274793075717228 0 -1 0
1909 147 11 0.09 3.69007237206798 8.347963814034191 6.8273645866147 -1 2 -3
6536 503 10 0.09 1.907063886403982 10.559418220439294 9.86233937834993 3 -1 4
6537 503 11 0.09 1.7475959562569092 11.809530995542572 11.045758652271902 3 -1 4
1901 147 3 0.018 3.2689222165062883 7.860516931048532 7.698417014224704 -1 2 -3
938 73 2 -0.178 1.6537579302776342 11.345483075462887 3.118336818512235 2 2 5
1900 147 2 -0.178 2.792261178303833 6.466275986085854 7.348376951572534 -1 2 -3
5592 431 2 -0.178 5.971614479360404 6.963472996622088 5.164550140026425 0 -1 0
940 73 4 -0.4 2.2140904337384275 9.028104093739099 2.654440263709458 2 2 5
5591 431 1 -0.178 6.678266983119595 5.586549194657596 5.332794418138175 0 -1 0
947 73 11 0.09 2.0027397592264213 9.72296542170922 4.608716109853157 2 2 5
1902 147 4 -0.4 4.359838760549392 7.630000202292078 8.677441683406744 -1 2 -3
5601 431 11 0.09 4.104152527162139 6.483701670938823 4.124952254989322 0 -1 0
6533 503 7 0.09 5.477718867236025 9.96400207102469 10.601794283039315 3 -1 4
1911 147 13 0.09 5.659620480264504 6.001319264956088 7.969733912933488 -1 2 -3
5783 445 11 0.09 2.3310399267784025 4.466052835441599 11.995802075107475 1 1 1
5593 431 3 0.018 5.100780604276245 6.804319749760929 3.84714635001342 0 -1 0
359 28 8 0.09 2.7965752204570964 1.935428487263974 6.36305949326316 3 2 1
1905 147 7 0.09 2.9013701421841405 5.3647084113129075 9.323912537886375 -1 2 -3
1903 147 5 0.018 4.797100270452757 6.209240489288795 8.712933703733578 -1 2 -3
358 28 7 0.09 3.5472491440015044 3.959985501586123 5.427248128976395 3 2 1
356 28 5 0.018 2.1407915386364786 3.82653257914118 3.774510658604659 3 2 1
352 28 1 -0.178 3.3161228462701655 3.262300446862589 4.623252791430698 3 2 1
6531 503 5 0.018 3.7771296518609447 9.2711713277622 11.780647704405649 3 -1 4
363 28 12 0.09 1.9688244783025675 4.950508488390231 3.9818499604710094 3 2 1
1907 147 9 0.09 3.0481419500525293 6.153076133182029 6.323612710313413 -1 2 -3
2534 195 12 0.09 6.0599408514965685 2.767410391757709 11.660684540699782 0 -1 1
5596 431 6 0.09 5.993888519653894 4.925618526539269 5.814573688546378 0 -1 0
353 28 2 -0.178 2.658152363627217 1.9550105572756633 5.258580131344615 3 2 1
6527 503 1 -0.178 4.7817473169252915 10.387401635426405 11.375347452728176 3 -1 4
5603 431 13 0.09 6.750340120823578 4.104322800037724 3.6964525453231274 0 -1 0
6159 474 10 0.09 6.555402774173799 11.60935749695889 6.484489109849806 -1 -3 -1
2116 163 10 0.09 2.4542300442416627 1.766503800638324 1.6842753160550175 -2 2 -1
1906 147 8 0.09 1.6827398934030466 6.369811436977064 7.42547472685421 -1 2 -3
945 73 9 0.09 2.620503296608373 11.868231164864893 3.455427927284958 2 2 5
3458 266 13 0.09 1.6354411103058095 3.4536386363386002 8.145025563692684 1 1 -2
6194 477 6 0.09 4.326113937103107 1.5859397077265172 8.47886209374974 -2 -1 0
6066 467 8 0.09 4.183385790153149 2.0729696293292057 21.952132461057033 3 2 -1
5782 445 10 0.09 3.1693523325504716 5.857234235171852 12.857266999913929 1 1 1
2877 222 4 -0.4 2.85848522299501 7.746903260387601 18.599640617058796 1 0 -1
2874 222 1 -0.178 4.593932382021972 9.412333105163013 18.24174156551029 1 0 -1
6532 503 6 0.09 5.358222442909644 10.849447645248434 12.213134433255181 3 -1 4
5779 445 7 0.09 3.0529379751121697 3.06080497017839 15.697849373077025 1 1 1
500 39 6 0.09 2.3160539204709476 5.4863822778942435 20.499379291151186 2 5 0
2878 222 5 0.018 3.8400562730001724 8.539679482925841 19.271097642069968 1 0 -1
5780 445 8 0.09 2.4414791489028067 5.304982251854658 15.015417345608434 1 1 1
3083 238 2 -0.178 5.066705963918722 6.189952167355378 21.918031265240348 0 1 -1
2312 178 11 0.09 6.2376993567976475 4.72501594271156 14.699983589279388 4 -1 -2
5778 445 6 0.09 2.1653469447110822 2.264206841552497 14.409133180997783 1 1 1
497 39 3 0.018 2.112852128647856 2.4328811461582016 19.090842169296455 2 5 0
1388 107 10 0.09 3.333325374059755 11.279088744212935 21.14869759084333 -1 -3 0
2311 178 10 0.09 5.308409867790985 6.299168991705987 15.074466783031781 4 -1 -2
498 39 4 -0.4 3.1238406181114264 3.0990977440327923 18.329416719832544 2 5 0
506 39 12 0.09 3.1946101452447087 5.101941401241875 17.863523597287383 2 5 0
2309 178 8 0.09 5.183017958738695 5.797800667618784 17.361294267767676 4 -1 -2
2886 222 13 0.09 3.2676468864464603 9.065704555070452 20.037421840897814 1 0 -1
2881 222 8 0.09 4.4324399107379815 9.077818872012188 16.05513150779417 1 0 -1
3090 238 9 0.09 5.6520043106886595 7.183479633862199 21.997838585290904 0 1 -1
5784 445 12 0.09 4.932278405882017 2.496441488549916 14.231718558893384 1 1 1
2875 222 2 -0.178 3.8108333141200523 9.248391015425902 16.93724521730035 1 0 -1
2310 178 9 0.09 5.165473044075203 4.005680240704372 16.84606171905869 4 -1 -2
3082 238 1 -0.178 5.8848414531201145 4.991509060081799 22.398280842364166 0 1 -1
2303 178 2 -0.178 5.681518155930924 4.999480792354635 16.815124335843848 4 -1 -2
2880 222 7 0.09 5.675846922873398 9.02721267840209 18.08089525875328 1 0 -1
5785 445 13 0.09 3.5752887487873135 2.0321957730755265 13.082815309861957 1 1 1
5777 445 5 0.018 3.9475594237238303 2.838060344990576 13.728312946597564 1 1 1
5774 445 2 -0.178 2.229867068836244 4.516128596135455 14.237650398706952 1 1 1
2883 222 10 0.09 2.9714938208440325 7.143204861736619 16.64415654975795 1 0 -1
1307 101 7 0.09 5.269166405314582 2.1031760248537923 17.685673760496545 0 0 1
2876 222 3 0.018 2.761475073614799 8.073607457765661 17.209588058532066 1 0 -1
6539 503 13 0.09 4.079770148979402 8.829805729510369 12.698047657149889 3 -1 4
2882 222 9 0.09 3.2845226569638246 10.216703424944471 16.784556716743978 1 0 -1
2304 178 3 0.018 6.063075600326877 5.547545357629336 15.401542960422171 4 -1 -2
1381 107 3 0.018 3.771741268044749 11.505645243872674 22.151394500942796 -1 -3 0
2879 222 6 0.09 4.78955693607746 10.474374036158776 18.470604727862032 1 0 -1
5773 445 1 -0.178 2.7511514785412414 3.1161585556830986 14.633268059552162 1 1 1
507 39 13 0.09 4.200505985125394 4.6094876652714065 19.271373163830365 2 5 0
3089 238 8 0.09 4.718039983741379 6.11773202247725 20.893431131413273 0 1 -1
5775 445 3 0.018 2.8791045830438646 4.798002198963662 12.881261347205097 1 1 1
499 39 5 0.018 3.234797994671783 4.500451375111515 18.756246864963437 2 5 0
495 39 1 -0.178 2.014398179885518 4.896691362885103 19.64059321390367 2 5 0
2885 222 12 0.09 4.568093017312076 7.8581978129035965 19.665839662498758 1 0 -1
3088 238 7 0.09 5.45866850510016 4.066712564056242 21.956097138266532 0 1 -1
2884 222 11 0.09 1.7144984985946352 8.324639885413472 16.99463193262718 1 0 -1
5776 445 4 -0.4 4.121004825603967 3.9805875488800946 12.882665158531049 1 1 1
3234 249 10 0.09 3.4152851837270215 9.526797052139479 27.9553981073249 3 1 0
5210 401 10 0.09 5.72169403419779 3.1214696332439047 29.650617091342625 1 0 -2
5209 401 9 0.09 3.3790138759980044 4.407610039183652 30.98146708952088 1 0 -2
1391 107 13 0.09 5.2473097702033815 10.471264223776082 24.45903811032864 -1 -3 0
3227 249 3 0.018 3.2297417558801524 8.594862750103008 27.38210860691496 3 1 0
1921 148 10 0.09 2.8722947645134047 2.2658778093067196 32.308859812617555 2 0 0
1389 107 11 0.09 3.064581767018381 11.986457749273457 22.79311966057761 -1 -3 0
5202 401 2 -0.178 4.454587472036865 4.54709392798053 30.968051853311863 1 0 -2
3226 249 2 -0.178 3.1572000943250647 8.754852578936287 25.799151143056495 3 1 0
2781 214 12 0.09 2.633703703413405 5.569947980785657 26.196765983468858 1 1 -1
4423 341 3 0.018 2.7539326836579407 9.441418402097792 32.93305511118134 1 1 -2
5201 401 1 -0.178 4.734285395234577 4.875986462931383 32.460748195439436 1 0 -2
3228 249 4 -0.4 1.9168190841349537 8.061244600096096 27.77089827737288 3 1 0
4421 341 1 -0.178 3.2550505475172953 8.186302931971927 30.856950772489157 1 1 -2
5203 401 3 0.018 5.206809333481823 3.2389531483957037 30.675765802805262 1 0 -2
1915 148 4 -0.4 2.0083314300381105 1.7184323059797817 30.502758702584472 2 0 0
4426 341 6 0.09 3.256247266327713 7.206588351577878 30.334153785026338 1 1 -2
4429 341 9 0.09 2.887319887633518 7.302808836664409 32.942931633907044 1 1 -2
1806 139 12 0.09 5.989727909995421 10.483644116020999 31.924897066843236 2 -2 -1
3232 249 8 0.09 3.3350223316931644 9.835562899176162 25.53655681448351 3 1 0
3233 249 9 0.09 3.9147616472137505 8.153114018241517 25.300719898164743 3 1 0
4422 341 2 -0.178 3.4013134010947113 8.09159953197695 32.39672820839051 1 1 -2
5207 401 7 0.09 5.093528671021211 5.914582720111977 32.593605755279214 1 0 -2
3092 238 11 0.09 3.6151758908882496 7.34522163201296 23.201162446235532 0 1 -1
2455 189 11 0.09 4.048739295977527 11.607320184240491 26.9746645528923 -2 2 -2
1383 107 5 0.018 5.50923755171468 10.376440631479174 23.4239964100443 -1 -3 0
4425 341 5 0.018 1.8982189704947086 8.967277862899902 30.809165691354657 1 1 -2
3094 238 13 0.09 6.520829148816208 5.7205116857220695 24.401492716766228 0 1 -1
6068 467 10 0.09 6.134411444090232 2.218237179774455 23.3411875782207 3 2 -1
1382 107 4 -0.4 4.211966223496041 10.265055386781473 22.794189042437498 -1 -3 0
1799 139 5 0.018 6.553624696030823 10.9255173718185 31.033854281587704 2 -2 -1
4428 341 8 0.09 4.44100356969079 8.160960956687214 32.634155357338884 1 1 -2
3235 249 11 0.09 3.9944400040952597 7.891747997508712 27.778650387472766 3 1 0
1379 107 1 -0.178 6.125146630060048 11.762727727841808 22.923659119989072 -1 -3 0
1078 83 12 0.09 6.305288946592193 8.08632673467184 28.647953961793174 2 -1 1
1390 107 12 0.09 6.121338940763549 9.499322075161981 23.215598471291607 -1 -3 0
3093 238 12 0.09 5.676678198860664 4.250125226076696 24.559059635156068 0 1 -1
5205 401 5 0.018 5.802291373552796 3.8524309089086484 32.903731668891545 1 0 -2
3085 238 4 -0.4 4.421115795590734 5.706186980373211 24.17517109252813 0 1 -1
4424 341 4 -0.4 1.7928795569513818 9.826568579059328 31.984274108525288 1 1 -2
4427 341 7 0.09 4.0763772505442875 8.75708466472378 30.42666894942382 1 1 -2
5208 401 8 0.09 4.821276084185044 5.3408557147531175 30.28730472280052 1 0 -2
1807 139 13 0.09 6.493246139118583 10.152630498659304 30.264161566884567 2 -2 -1
2776 214 7 0.09 2.1559501995462265 4.656593525405196 28.51131251775857 1 1 -1
2782 214 13 0.09 2.9115347983033883 3.89025742790705 25.64501112427051 1 1 -1
2775 214 6 0.09 3.017336433257654 3.197942178445561 27.93411530643248 1 1 -1
5211 401 11 0.09 4.53409813731348 2.3731478354699944 30.813278667461795 1 0 -2
3086 238 5 0.018 5.712337915768763 5.118938209091921 23.95146721336493 0 1 -1
2770 214 1 -0.178 2.164507951753186 3.8870642252153518 27.687503633205406 1 1 -1
2774 214 5 0.018 2.2759577582208226 4.531702573611529 26.271060378393642 1 1 -1
1070 83 4 -0.4 6.682197654541548 7.321377734654382 30.464878756484886 2 -1 1
3084 238 3 0.018 3.92431394452749 6.314572497258952 22.94924487448222 0 1 -1
1914 148 3 0.018 2.0672740819200555 1.5973310400797864 31.95155416740679 2 0 0
3225 249 1 -0.178 1.6956596273412654 8.467393476875655 25.31460816534066 3 1 0
5204 401 4 -0.4 6.25192938291234 3.0782767215889657 31.707378362388294 1 0 -2
1079 83 13 0.09 6.6928867372879335 6.428009584694248 28.557508994952652 2 -1 1
4432 341 12 0.09 1.6692325841650306 9.530191482907542 29.921155664793307 1 1 -2
3230 249 6 0.09 1.658258555666372 7.384443483994928 25.004899865220224 3 1 0
2457 189 13 0.09 1.7463102944682332 11.087713063916665 28.482547791557373 -2 2 -2
3091 238 10 0.09 3.129507032412472 5.650459036475101 22.605152965819112 0 1 -1
617 48 6 0.09 6.685550381493957 2.1340054584554817 27.52578457575144 0 -1 2
4516 348 5 0.018 3.726155376699114 4.728645500644653 40.17412333546406 2 -1 0
4513 348 2 -0.178 3.2636826085018633 5.78904152343788 42.28699246744581 2 -1 0
941 73 5 0.018 2.3195574152959404 9.694042741356409 43.21064012592281 2 2 4
4431 341 11 0.09 2.3533370102383606 9.36276574285759 33.948649140962836 1 1 -2
4698 362 5 0.018 6.107473841899884 11.424981288136635 42.70878964473238 -2 2 -1
3721 287 3 0.018 4.909519864133978 9.073128145998407 36.431009570897864 0 -2 1
4522 348 11 0.09 2.3929729475290475 7.246444898717397 40.86613129740261 2 -1 0
4976 383 10 0.09 4.671541882844871 2.2053175057130243 38.57856119918514 -1 1 -1
1295 100 8 0.09 6.339045141927912 6.814059840673192 41.40195749924388 1 1 -3
4514 348 3 0.018 3.3860795353386215 6.847043916639046 41.14934266306061 2 -1 0
4547 350 10 0.09 2.5955183674284585 9.19386445147003 38.93348514176015 1 0 1
4521 348 10 0.09 4.110058360795975 7.69129972357224 41.314949189530395 2 -1 0
4520 348 9 0.09 2.2184936896994367 5.828627424730881 42.64148197903307 2 -1 0
4706 362 13 0.09 5.517218941504179 10.619932703366498 43.11386739272092 -2 2 -1
4055 312 12 0.09 3.332143636057938 4.436549089519142 36.45520145959268 1 2 1
4977 383 11 0.09 3.3438633094774803 1.8440420593962241 39.59423172893174 -1 1 -1
948 73 12 0.09 1.7253645534469466 9.123853784106839 42.5604503710736 2 2 4
3728 287 10 0.09 4.622876391172961 9.119228350128791 37.505448713942734 0 -2 1
4523 348 12 0.09 4.556961060172926 4.177298413618628 39.73767484255524 2 -1 0
4048 312 5 0.018 2.372057888387685 4.8111729700712935 36.817551956398766 1 2 1
4051 312 8 0.09 2.7052746744382934 7.455591451870823 35.36851001627775 1 2 1
4694 362 1 -0.178 5.607765518327542 11.79147969971044 41.22807682097621 -2 2 -1
3729 287 11 0.09 4.120614116417428 8.794830178116776 35.79274370748295 0 -2 1
5213 401 13 0.09 5.350774023785066 3.1714891761582162 33.66682645755221 1 0 -2
942 73 6 0.09 2.7343112021202547 11.85694807455393 43.1046908467265 2 2 4
3561 274 12 0.09 6.333160829323648 2.877461397504473 42.54047674683466 0 -1 2
4512 348 1 -0.178 3.6297889441941655 4.455235542207884 41.68487275353774 2 -1 0
4045 312 2 -0.178 1.8403711354567642 6.948370941754309 35.89847626491722 1 2 1
4515 348 4 -0.4 3.891327597031234 6.114385179587077 39.968945238430216 2 -1 0
949 73 13 0.09 3.366035408999389 9.60389681794309 42.935481428547156 2 2 4
4050 312 7 0.09 3.2251384582503526 6.759692433122287 37.452798161776585 1 2 1
4519 348 8 0.09 3.9160289252384475 5.948581296518011 43.21965850671857 2 -1 0
4056 312 13 0.09 2.0427681875559163 4.116403079192309 37.61632225958441 1 2 1
5212 401 12 0.09 6.719402263547633 4.374572832670537 33.21044631192157 1 0 -2
4044 312 1 -0.178 2.248172604329148 6.3440885181392375 37.21798094900355 1 2 1
4970 383 4 -0.4 2.9974730002129846 1.7286517078284285 37.5497898712236 -1 1 -1
3722 287 4 -0.4 5.1522755582692135 10.461173067956127 36.13102740305166 0 -2 1
4518 348 7 0.09 4.6211582084958085 4.0963180481146635 42.13146739266071 2 -1 0
3727 287 9 0.09 5.68462110925388 7.307795573510338 35.340103551109685 0 -2 1
4517 348 6 0.09 2.9472508442410037 3.6519072975553684 41.889078554676885 2 -1 0
4699 362 6 0.09 4.781508438723701 11.161783773747377 40.8695168787834 -2 2 -1
4524 348 13 0.09 2.8332699984994543 4.391579396291878 39.61013660752374 2 -1 0
3726 287 8 0.09 6.412172889246173 7.604421341334337 36.99319805783193 0 -2 1
3723 287 5 0.018 6.608616053477217 10.639349260794189 35.87190443173729 0 -2 1
4702 362 9 0.09 6.715931393271473 10.634361167275658 39.730182533449835 -2 2 -1
5206 401 6 0.09 3.7298889192056124 4.732304703567909 32.9781977948171 1 0 -2
3720 287 2 -0.178 6.081977980410912 8.114418437318172 36.06479855847841 0 -2 1
4541 350 4 -0.4 1.7128886900863904 10.574175871417836 40.237215602430396 1 0 1
937 73 1 -0.178 1.8401391508343183 11.132784527398282 43.39378819105853 2 2 4
4538 350 1 -0.178 1.7560594261016782 12.038766102274478 38.36391618052899 1 0 1
3731 287 13 0.09 6.707336203830668 11.403866256446278 35.097044492881146 0 -2 1
4540 350 3 0.018 1.6347546759319336 9.731068227019477 39.02476542187878 1 0 1
2117 163 11 0.09 3.996544026653363 1.6611364044273087 42.47719113174862 -2 2 -2
4430 341 10 0.09 3.4583958690147494 10.2579937784604 33.0003736892006 1 1 -2
4545 350 8 0.09 1.7960825331181123 10.24359385516126 36.97341979349184 1 0 1
4969 383 3 0.018 3.8754710300869397 1.582730772816781 38.69682929973554 -1 1 -1
6075 468 4 -0.4 3.686939034340983 13.759613622481911 7.029798301587299 1 2 -1
366 29 2 -0.178 3.6484695208064846 15.610970279324095 10.892240607246412 -3 1 0
6535 503 9 0.09 4.099165930467175 12.377785581882183 11.068179698831408 3 -1 4
1259 97 11 0.09 4.191890046138072 18.31524206973421 7.680413188931247 0 2 0
1256 97 8 0.09 3.3613570736194625 21.014729952299383 7.7766473558920435 0 2 0
6077 468 6 0.09 3.1847144477593083 16.59577438942143 6.8007064480073005 1 2 -1
6074 468 3 0.018 2.615760807801741 13.90049707333189 6.062757059724558 1 2 -1
6078 468 7 0.09 4.3541229555099115 16.71820237813933 5.556414236111264 1 2 -1
1249 97 1 -0.178 5.3382371434148865 21.29046776227568 8.956380077167754 0 2 0
1258 97 10 0.09 4.966044849989677 19.656448307928166 6.7042574784069515 0 2 0
6084 468 13 0.09 4.91979720551982 15.295874427166309 7.832733560202317 1 2 -1
6081 468 10 0.09 2.4854728196805675 13.03308270760101 5.392688707384585 1 2 -1
1695 131 5 0.018 2.020553282920292 19.923977507910738 2.9378469353650294 -2 -1 -2
4897 377 9 0.09 5.555799127468003 14.555539774122108 2.2116092253541035 0 1 -2
374 29 10 0.09 2.867325598800502 13.687759264333494 9.782519155539271 -3 1 0
5952 458 11 0.09 5.714325831728193 13.429100309253338 9.341380797024005 -2 1 1
4891 377 3 0.018 5.079902913942682 16.771542368539563 2.0788838279062984 0 1 -2
6073 468 2 -0.178 2.8052539566006205 15.208908352474797 5.201273949351146 1 2 -1
370 29 6 0.09 2.5556583401544635 17.226164287223114 11.767275581281956 -3 1 0
6083 468 12 0.09 5.514835536894941 14.637720116582216 6.346653478926612 1 2 -1
1691 131 1 -0.178 3.4741226439420743 20.462826097492794 3.1444800739139964 -2 -1 -2
372 29 8 0.09 4.293831662237779 14.769915756140094 11.307574567657179 -3 1 0
6080 468 9 0.09 1.9162646401108698 15.84446029771239 4.9808861049410655 1 2 -1
365 29 1 -0.178 2.72595285919252 16.155345054291814 11.93506193612577 -3 1 0
1253 97 5 0.018 6.307400761657045 20.147680755866357 9.224365218717004 0 2 0
1701 131 11 0.09 1.8554112329356107 21.340520924591733 5.7686717234146165 -2 -1 -2
4898 377 10 0.09 5.975928429584592 17.344188847418238 1.67893838973007 0 1 -2
1255 97 7 0.09 5.716927207170107 22.037402459118905 8.17612010354367 0 2 0
2400 185 8 0.09 2.131673445661889 21.763953622385237 10.877118369670548 2 1 0
6072 468 1 -0.178 3.7560138176338933 15.987048044346844 6.133469355062638 1 2 -1
1250 97 2 -0.178 4.0491677580670355 20.518330499656713 8.452715424218756 0 2 0
6076 468 5 0.018 4.583735636577472 14.874475122507844 6.872163304019609 1 2 -1
373 29 9 0.09 4.248330219458255 16.352040953007517 10.33371309259508 -3 1 0
6079 468 8 0.09 3.398195150999628 15.062938509146761 4.2500544097898665 1 2 -1
1251 97 3 0.018 4.755615594632047 19.283093449110233 7.696714361245674 0 2 0
1699 131 9 0.09 4.046813911509842 21.56983185559777 4.923626352010766 -2 -1 -2
1692 131 2 -0.178 3.312997147473726 21.595904149473945 4.188374860252081 -2 -1 -2
375 29 11 0.09 2.725248815221385 15.257194204294327 8.844246495148125 -3 1 0
1257 97 9 0.09 3.4599553579787425 20.11562949135308 9.249862976976074 0 2 0
1252 97 4 -0.4 6.03099998536017 19.030052731102792 8.347824236692695 0 2 0
1254 97 6 0.09 5.162162965865344 21.9169383174873 9.91830404842766 0 2 0
4899 377 11 0.09 5.031207134170812 16.856467686697627 3.1393689021419817 0 1 -2
4894 377 6 0.09 3.1567418290170854 14.536288776197331 2.0542383040008234 0 1 -2
1703 131 13 0.09 2.0140020687456683 18.834449390461305 2.790847919863747 -2 -1 -2
6082 468 11 0.09 1.7215651605094398 13.83615934977339 6.65853021888576 1 2 -1
367 29 3 0.018 2.714332379142446 14.843670518692297 9.877133064844408 -3 1 0
1697 131 7 0.09 3.9995304182760276 20.902765260849833 2.230499017756097 -2 -1 -2
1261 97 13 0.09 5.997037641068467 19.771321057953006 10.181276586795281 0 2 0
1693 131 3 0.018 1.819383793781769 21.476914661617272 4.690355309703323 -2 -1 -2
1696 131 6 0.09 4.087843142466239 19.62140900530787 3.478476348739971 -2 -1 -2
5944 458 3 0.018 6.690515549713637 13.252017015825572 9.851809506506727 -2 1 1
5945 458 4 -0.4 6.707055869472137 13.745393513486594 11.199824975945441 -2 1 1
1702 131 12 0.09 1.6336288800862562 20.24492408984695 2.008805034310548 -2 -1 -2
4705 362 12 0.09 6.109396396445074 12.30016117247809 1.6809193611893676 -2 2 0
4720 364 1 -0.178 4.421855581463454 15.593286765049529 15.792832070383318 0 0 1
4721 364 2 -0.178 5.526723221695667 14.860141381230461 14.88986479802361 0 0 1
5314 409 10 0.09 2.554950495951947 12.75073243440172 13.592464440429533 1 -2 0
371 29 7 0.09 3.15906821616558 16.05780761415886 12.983509728524957 -3 1 0
4732 364 13 0.09 3.1617486021166314 14.521048136941426 17.117778176323863 0 0 1
266 21 6 0.09 3.363776730696614 15.33433810141784 20.083741330593462 -2 -1 0
5307 409 3 0.018 2.011532164894147 12.751667869533009 14.551553001866843 1 -2 0
4727 364 8 0.09 6.596287606676431 15.160864045283647 15.045570344663172 0 0 1
261 21 1 -0.178 2.280832911592144 15.449344723630762 20.116713527784693 -2 -1 0
4724 364 5 0.018 4.225023222044467 14.720333559940048 17.04712669146323 0 0 1
5547 427 9 0.09 4.955450986194581 18.048592150546778 19.243451732457114 3 0 -3
4723 364 4 -0.4 4.946021150843928 13.422572362561635 16.817030051619014 0 0 1
3377 260 10 0.09 3.0329280292728313 22.189606022379078 19.609590561312032 0 1 -1
5540 427 2 -0.178 5.998081341498242 17.677597262149593 19.410239244558518 3 0 -3
267 21 7 0.09 1.9258367289664178 15.78896083355777 21.105155781860468 -2 -1 0
4725 364 6 0.09 3.4297506590390485 15.63750975400778 15.330000561901151 0 0 1
5544 427 6 0.09 6.583216605820822 18.31901018639143 17.51021838888729 3 0 -3
1387 107 9 0.09 4.817806970995096 13.474582799601603 22.07586144494517 -1 -3 0
273 21 13 0.09 2.2851241334363044 16.80372261896647 18.204869466346125 -2 -1 0
5315 409 11 0.09 2.721182343015769 12.664163075022262 15.313333633251714 1 -2 0
1582 122 9 0.09 5.436270172445713 16.368937005971773 22.071833749271114 0 1 -1
3678 283 12 0.09 3.5611652775578424 21.701146368880103 15.62533656888388 -1 0 -2
4729 364 10 0.09 6.5806826435214 12.980666657096952 15.641891294780926 0 0 1
4722 364 3 0.018 5.562074774467465 13.452011999026706 15.483946578280808 0 0 1
269 21 9 0.09 1.8763776319409038 13.485349410623002 19.022201123613492 -2 -1 0
5546 427 8 0.09 5.940322155982924 16.70211619282839 19.92752430151126 3 0 -3
4728 364 9 0.09 5.319300831668347 14.863139331536617 13.857964493111496 0 0 1
4731 364 12 0.09 4.5059010550950624 15.230502772524485 17.98634395678376 0 0 1
4726 364 7 0.09 4.686394841554126 16.651068526948436 16.013880782757962 0 0 1
4730 364 11 0.09 4.9775877080479285 12.692222986498832 14.918223390184343 0 0 1
1380 107 2 -0.178 5.044532657515592 12.444323252044057 21.93477221222241 -1 -3 0
3679 283 13 0.09 5.1078002305625665 22.126038647058024 16.32928116263148 -1 0 -2
5549 427 11 0.09 6.6204076300115995 19.690601812476537 19.853828634467355 3 0 -3
6417 494 8 0.09 1.863401399602573 20.38179186999623 14.55669883606205 0 1 -1
1386 107 8 0.09 5.2891321159110305 12.286066978311387 20.85414484522154 -1 -3 0
2808 216 13 0.09 6.735166329623153 20.918712331593987 12.683033785981642 3 0 4
5545 427 7 0.09 6.688452738046206 16.51959795538178 17.64375090890987 3 0 -3
4193 323 7 0.09 6.781800688532817 21.92695217341937 18.537498379063287 0 0 0
5548 427 10 0.09 6.668795986722198 18.557180959526704 21.343754024490075 3 0 -3
265 21 5 0.018 1.6352089415098712 16.48462087323459 19.073366842751554 -2 -1 0
5541 427 3 0.018 6.802973270873594 18.684478840898027 20.251416400447468 3 0 -3
1800 139 6 0.09 6.001539101985419 12.482925566615434 29.57013431879302 2 -2 -1
3981 307 3 0.018 2.500611776061461 20.82327878215155 32.95480744342641 -1 -1 -2
2447 189 3 0.018 3.7156572500865948 12.6743180185049 27.21189195907492 -2 2 -2
1575 122 2 -0.178 5.130637217370173 16.22853081830081 23.066491070381467 0 1 -1
3694 285 2 -0.178 5.6778238137137755 16.36346342698506 28.961075256182863 2 3 -1
6445 496 10 0.09 5.744057250140343 20.403771834812485 28.999285895533845 -1 -4 1
4364 336 9 0.09 3.0088611396492997 20.2098625234228 24.76517075748914 0 1 1
3698 285 6 0.09 4.15631033238789 14.752342762286267 29.01596615695384 2 3 -1
6439 496 4 -0.4 6.637273779467407 22.086187784715683 28.371449206466604 -1 -4 1
1580 122 7 0.09 4.96255969402503 14.24681769935963 24.053638886221954 0 1 -1
3379 260 12 0.09 2.8187310092986877 22.146929323519583 22.979342374839717 0 1 -1
1384 107 6 0.09 6.250107237025402 12.307066877694517 23.86664128057932 -1 -3 0
4366 336 11 0.09 3.219718233529297 20.213276553083766 27.297033173635622 0 1 1
2970 229 6 0.09 2.441685909509015 14.212324172490352 31.8631081662612 2 -1 0
4357 336 2 -0.178 2.0925760472157178 19.912524172848777 25.252428905134394 0 1 1
3701 285 9 0.09 6.441707640223315 15.605943724999912 28.786124091520897 2 3 -1
1576 122 3 0.018 5.658735004692314 17.397471635166582 23.99339700655875 0 1 -1
2448 189 4 -0.4 3.091367404308394 12.667405050260696 28.571100427364527 -2 2 -2
4356 336 1 -0.178 1.7348412030742013 18.42116379995225 24.77187826910376 0 1 1
3697 285 5 0.018 3.887170143344589 16.38643112984274 30.694971680761373 2 3 -1
3695 285 3 0.018 6.054250380569576 17.241658925070837 30.188789212666133 2 3 -1
3704 285 12 0.09 2.9046079492671057 16.918060183058515 30.743543743363638 2 3 -1
1803 139 9 0.09 6.748667945447471 14.213583938647368 30.931843572125565 2 -2 -1
1581 122 8 0.09 4.030625086670913 16.391577174842524 23.027621166127457 0 1 -1
2453 189 9 0.09 2.6725724880539774 12.713424353817963 25.247228748097328 -2 2 -2
3696 285 4 -0.4 4.8061055298274535 17.397909267148375 31.012846491968105 2 3 -1
3702 285 10 0.09 6.4500137071738095 18.208503152456423 29.853994462269338 2 3 -1
6443 496 8 0.09 6.7106436865152475 21.318696031833674 31.124862541253606 -1 -4 1
910 70 13 0.09 5.705069822772942 21.32014347294196 25.107214076274765 2 -3 2
3693 285 1 -0.178 4.186692460782258 15.822538009467085 29.187952977633003 2 3 -1
3979 307 1 -0.178 2.510349725243106 20.387191740503173 30.54451480424045 -1 -1 -2
3705 285 13 0.09 4.052632183938643 15.530930540546139 31.362897982345903 2 3 -1
909 70 12 0.09 5.651136172713452 20.254228953760183 23.660886410482306 2 -3 2
2452 189 8 0.09 2.5000608436466103 14.156131732791241 26.1979249320344 -2 2 -2
4359 336 4 -0.4 2.1854153440433084 18.42168236218627 27.127989244825276 0 1 1
2446 189 2 -0.178 2.5498777559624104 13.056143252594463 26.268443056445644 -2 2 -2
4358 336 3 0.018 2.2847751043897846 19.863299636633663 26.79324280576251 0 1 1
1584 122 11 0.09 6.136208660689588 18.23124480187394 23.403262578304524 0 1 -1
1585 122 12 0.09 5.90569425189848 15.345724255043345 26.02925453157843 0 1 -1