LAMMPS data file via write_data, version 29 Aug 2024, timestep = 1000000, units = real

5400 atoms
25 atom types
5400 bonds
25 bond types
10584 angles
49 angle types
20952 dihedrals
97 dihedral types

4.138313465526618 40.86168653447629 xlo xhi
4.138313465526618 40.86168653447629 ylo yhi
4.138313465526618 40.86168653447629 zlo zhi

Masses

1 12.011
2 12.011
3 12.011
4 12.011
5 12.011
6 12.011
7 12.011
8 12.011
9 15.999
10 1.008
11 1.008
12 1.008
13 1.008
14 1.008
15 1.008
16 1.008
17 1.008
18 1.008
19 1.008
20 1.008
21 1.008
22 1.008
23 1.008
24 1.008
25 1.008

Pair Coeffs # lj/charmmfsw/coul/long

1 0.055999 3.58141 0.01 3.38542
2 0.055999 3.58141 0.01 3.38542
3 0.055999 3.58141 0.01 3.38542
4 0.055999 3.58141 0.01 3.38542
5 0.032 3.56359 0.01 3.38542
6 0.055999 3.58141 0.01 3.38542
7 0.055999 3.58141 0.01 3.38542
8 0.055999 3.58141 0.01 3.38542
9 0.192101 3.14487 0.192101 3.14487
10 0.035 2.38761 0.035 2.38761
11 0.035 2.38761 0.035 2.38761
12 0.035 2.38761 0.035 2.38761
13 0.035 2.38761 0.035 2.38761
14 0.035 2.38761 0.035 2.38761
15 0.035 2.38761 0.035 2.38761
16 0.035 2.38761 0.035 2.38761
17 0.035 2.38761 0.035 2.38761
18 0.045 2.38761 0.045 2.38761
19 0.035 2.38761 0.035 2.38761
20 0.035 2.38761 0.035 2.38761
21 0.035 2.38761 0.035 2.38761
22 0.035 2.38761 0.035 2.38761
23 0.035 2.38761 0.035 2.38761
24 0.035 2.38761 0.035 2.38761
25 0.045999 0.400014 0.045999 0.400014

Bond Coeffs # harmonic

1 222.5 1.53
2 222.5 1.53
3 222.5 1.53
4 222.5 1.538
5 222.5 1.538
6 222.5 1.53
7 222.5 1.53
8 428 1.42
9 309 1.111
10 309 1.111
11 309 1.111
12 309 1.111
13 309 1.111
14 309 1.111
15 309 1.111
16 309 1.111
17 309 1.111
18 309 1.111
19 309 1.111
20 309 1.111
21 309 1.111
22 309 1.111
23 309 1.111
24 545 0.96
25 222.5 1.53

Angle Coeffs # charmm

1 58.35 113.6 11.16 2.561
2 58.35 113.6 11.16 2.561
3 58.35 113.5 11.16 2.561
4 58.35 113.5 11.16 2.561
5 58.35 113.5 11.16 2.561
6 58.35 113.6 11.16 2.561
7 75.7 110 0 0
8 26.5 110.1 22.53 2.179
9 26.5 110.1 22.53 2.179
10 26.5 110.1 22.53 2.179
11 26.5 110.1 22.53 2.179
12 26.5 110.1 22.53 2.179
13 26.5 110.1 22.53 2.179
14 26.5 110.1 22.53 2.179
15 26.5 110.1 22.53 2.179
16 34.5 110.1 22.53 2.179
17 33.43 110.1 22.53 2.179
18 33.43 110.1 22.53 2.179
19 26.5 110.1 22.53 2.179
20 26.5 110.1 22.53 2.179
21 26.5 110.1 22.53 2.179
22 26.5 110.1 22.53 2.179
23 50 106 0 0
24 26.5 110.1 22.53 2.179
25 26.5 110.1 22.53 2.179
26 35.5 109 5.4 1.802
27 45.9 108.89 0 0
28 35.5 109 5.4 1.802
29 26.5 110.1 22.53 2.179
30 26.5 110.1 22.53 2.179
31 58.35 113.6 11.16 2.561
32 33.43 110.1 22.53 2.179
33 35.5 109 5.4 1.802
34 35.5 109 5.4 1.802
35 26.5 110.1 22.53 2.179
36 35.5 109 5.4 1.802
37 26.5 110.1 22.53 2.179
38 35.5 109 5.4 1.802
39 26.5 110.1 22.53 2.179
40 58.35 113.6 11.16 2.561
41 35.5 109 5.4 1.802
42 26.5 110.1 22.53 2.179
43 26.5 110.1 22.53 2.179
44 75.7 110 0 0
45 26.5 110.1 22.53 2.179
46 26.5 110.1 22.53 2.179
47 26.5 110.1 22.53 2.179
48 34.5 110.1 22.53 2.179
49 33.43 110.1 22.53 2.179

Dihedral Coeffs # charmmfsw

1 0.0645 2 0 1
2 0.5 3 0 1
3 0.2 3 0 1
4 0.2 3 0 1
5 0.0645 2 0 1
6 0.3 1 0 1
7 0.195 3 0 1
8 0.195 3 0 1
9 0.195 1 0 1
10 0.195 3 0 1
11 0.195 3 0 1
12 0.195 3 0 1
13 0.195 3 0 1
14 0.195 1 0 1
15 0.195 3 0 1
16 0.22 3 0 1
17 0.195 1 0 1
18 0.22 3 0 1
19 0.195 3 180 1
20 0 3 0 1
21 0.195 3 0 1
22 0.22 3 0 1
23 0.195 3 0 1
24 0.22 3 0 1
25 0.22 3 0 1
26 0.195 3 0 1
27 0.0645 2 0 1
28 0.22 3 0 1
29 0.22 3 0 1
30 0.3 1 0 1
31 0.22 3 0 1
32 0.22 3 0 1
33 0.195 3 0 1
34 0.22 3 0 1
35 0.5 1 180 1
36 0.22 3 0 1
37 0.195 3 0 1
38 0.195 3 0 1
39 0.195 3 180 1
40 0.22 3 0 1
41 0.5 1 180 1
42 0.195 3 0 1
43 0.22 3 0 1
44 0.22 3 0 1
45 0.195 3 0 1
46 0.195 3 0 1
47 0.195 3 0 1
48 0.22 3 0 1
49 0.195 3 180 1
50 0.195 3 0 1
51 0.195 3 0 1
52 0.195 3 0 1
53 0.195 3 0 1
54 0.0645 2 0 1
55 0.22 3 0 1
56 0.22 3 0 1
57 0.22 3 0 1
58 0.195 3 0 1
59 0.22 3 0 1
60 0.22 3 0 1
61 0.195 3 0 1
62 0.195 3 0 1
63 0.195 3 0 1
64 0.22 3 0 1
65 0.195 3 180 1
66 0.5 3 0 1
67 0.195 3 0 1
68 0.195 3 0 1
69 0.22 3 0 1
70 0.195 3 0 1
71 0.195 3 0 1
72 0.195 3 0 1
73 0.22 3 0 1
74 0.22 3 0 1
75 0.195 1 0 1
76 0.14975 3 180 0
77 0.09458 4 0 0
78 0.11251 5 0 0
79 0.5 6 180 0
80 0.14975 3 180 0
81 0.09458 4 0 0
82 0.11251 5 0 0
83 0.3 3 0 0
84 0.14975 3 180 0
85 0.09458 4 0 0
86 0.11251 5 0 0
87 0.3 3 0 0
88 0.7 2 0 0
89 0.4 3 0 0
90 0.4 5 0 0
91 0.7 2 0 0
92 0.4 3 0 0
93 0.4 5 0 0
94 0.14975 3 180 0
95 0.09458 4 0 0
96 0.11251 5 0 0
97 0.5 6 180 0

Atoms # full

2330 94 5 0.157 12.37057911156001 9.31954434244209 12.266891200887821 0 0 0
2130 86 5 0.157 10.248965073475215 10.582522688970563 8.42906913222527 1 0 1
497 20 22 0.09 7.594603149151706 15.221507845502067 12.84075108072692 0 0 0
2810 113 10 0.09 8.098872709872852 5.679986233790279 5.833847715410618 1 0 1
2332 94 7 -0.191 12.553994524449127 6.732369423554769 12.839226570951949 0 0 0
2824 113 24 0.09 6.671084996689482 7.8248469664998925 6.014974301386031 1 0 1
2830 114 5 0.157 11.645695121540536 5.0513006321494816 7.105164940885935 1 0 1
2135 86 10 0.09 11.692668953844315 13.662564193920813 5.92134347888238 1 0 1
2145 86 20 0.09 8.903357326895339 10.1189656537146 6.7491558597535 1 0 1
2128 86 3 -0.191 11.745696189745761 10.16623824937873 6.34621198202429 1 0 1
2828 114 3 -0.191 12.485952226565912 5.469711885319059 4.757192209954187 1 0 1
1022 41 22 0.09 6.656045972546332 6.277775856125526 11.747954490921387 1 0 1
493 20 18 0.09 9.789972655739152 12.85023306866888 11.142294954515503 0 0 0
491 20 16 0.09 7.41839882763804 13.476863187015132 9.678982386638346 0 0 0
2148 86 23 0.09 9.513906111135976 13.67258128474913 5.598672299746413 1 0 1
2347 94 22 0.09 11.447537195120006 6.667442286584433 12.879196249942567 0 0 0
480 20 5 0.157 8.724737859343382 12.988296442683096 11.39034211671613 0 0 0
2329 94 4 -0.201 10.92169873264952 9.45698395660855 12.798910570990794 0 0 0
4544 182 19 0.09 5.00263505815373 9.883266968780147 12.49153899203479 1 0 0
2127 86 2 -0.157 12.226013893505003 11.563866361671517 6.0525333727199655 1 0 1
1004 41 4 -0.201 9.379110479765622 5.874102191552279 10.790657611370673 1 0 1
478 20 3 -0.191 8.975155832969016 15.122975676267906 9.850806698442316 0 0 0
4378 176 3 -0.191 4.569489597614657 10.077391139010548 6.202991051401922 1 1 0
2136 86 11 0.09 11.260671612966519 12.88940936270806 7.49521189724505 1 0 1
2839 114 14 0.09 11.986066370734688 4.554588483032848 4.3521086267170155 1 0 1
2346 94 21 0.09 12.906949239882158 5.789882592707625 12.380685706730421 0 0 0
489 20 14 0.09 9.836234709647833 14.61785502054999 9.33878576097486 0 0 0
477 20 2 -0.157 9.592265613005873 16.20306034950344 10.757755342928693 0 0 0
2141 86 16 0.09 12.363993225427016 9.988978693267125 8.346393470407465 1 0 1
2126 86 1 -0.18 11.27929349593429 12.704123461816664 6.350270982764229 1 0 1
2841 114 16 0.09 10.468825649063936 6.098698475344132 5.439269183083109 1 0 1
2132 86 7 -0.191 8.830289409149717 12.306999241088677 7.000690231778087 1 0 1
1025 41 25 0.42 9.271760248505199 8.092313143751998 9.229515649819746 1 0 1
2139 86 14 0.09 12.449970497171687 9.441372261611388 5.823213211392752 1 0 1
2134 86 9 -0.649 9.785484650749249 9.884198177198535 9.611121029598042 1 0 1
2149 86 24 0.09 9.678646323414927 12.029321589713192 4.930659070053747 1 0 1
4534 182 9 -0.649 5.4620958795909065 11.708948895786435 10.948941797567185 1 0 0
2844 114 19 0.09 12.338473242977688 4.762230390285878 9.063939175589622 1 0 1
4543 182 18 0.09 5.517571881706735 12.512192863605833 12.892926124026722 1 0 0
492 20 17 0.09 7.164536935629336 14.612627427445425 10.897459397242056 0 0 0
1013 41 13 0.09 7.620394598712483 4.168460478617831 12.346486426568898 1 0 1
2834 114 9 -0.649 10.367221662328806 4.66131003059079 7.4924138271171845 1 0 1
4392 176 17 0.09 4.994579938873523 11.02798995714192 8.055957711304014 1 1 0
1016 41 16 0.09 10.414605013062928 6.177409353162601 10.62262762080363 1 0 1
4395 176 20 0.09 5.090887279256588 8.170565816103014 8.37491141237302 1 1 0
2142 86 17 0.09 11.33818017479948 8.753020389422154 7.7429194052685055 1 0 1
2831 114 6 -0.201 12.433871986925961 5.574806772569734 8.286005941292366 1 0 1
1008 41 8 -0.157 6.003700902176068 4.555332691837294 10.491999592916716 1 0 1
2845 114 20 0.09 12.013911878772564 6.452351733903333 8.746380285546204 1 0 1
4550 182 25 0.42 4.726266057656147 11.352840192018741 10.423664565754768 1 0 0
2140 86 15 0.09 10.799393646705388 10.045520301143496 5.769734311180288 1 0 1
2150 86 25 0.42 9.242683742986122 10.581348850297633 10.054457402773025 1 0 1
4541 182 16 0.09 4.3643143548471555 14.077963109143003 11.689662941689534 1 0 0
4399 176 24 0.09 4.191589205799568 6.90460063798835 5.676851561965813 1 1 0
495 20 20 0.09 7.743364324156737 12.714379538278576 13.308350918561201 0 0 0
1021 41 21 0.09 5.336157906180862 6.505822716685108 10.771092166847852 1 0 1
2144 86 19 0.09 8.112026912465188 10.558827521732887 8.12250143877136 1 0 1
479 20 4 -0.201 8.034578385578204 14.017417413112332 10.406047891118469 0 0 0
2131 86 6 -0.201 8.933250410956951 10.868642520762622 7.5542272478741825 1 0 1
2331 94 6 -0.201 12.888362262569837 7.877364857764572 11.842182118698798 0 0 0
1006 41 6 -0.201 7.080126979618585 6.842257525591364 9.664802639751056 1 0 1
2129 86 4 -0.201 11.447451865799845 9.853750809091117 7.799235229453775 1 0 1
484 20 9 -0.649 8.181513679521636 11.673674074643923 11.130724010403746 0 0 0
2147 86 22 0.09 7.759446182782079 12.494266902729361 6.7855223832391225 1 0 1
483 20 8 -0.157 9.856973923652141 15.436540767157583 13.266991691840122 0 0 0
476 20 1 -0.18 10.474858451841405 15.594230817389356 11.856749882453766 0 0 0
2811 113 11 0.09 6.372552162541563 5.493693208712584 5.829310540382314 1 0 1
486 20 11 0.09 10.984469592366755 14.606058908235157 11.632976194181836 0 0 0
1009 41 9 -0.649 9.30742603667548 7.219267754800658 8.719918896153544 1 0 1
1020 41 20 0.09 6.940841137092482 7.9231427627441615 9.615047357877529 1 0 1
2850 114 25 0.42 10.123725127030486 5.297343274361713 8.19853474517961 1 0 1
1007 41 7 -0.191 6.264178294709283 6.05533230031518 10.737620577259591 1 0 1
2137 86 12 0.09 13.20457004875596 11.83593662579774 6.5535828926080395 1 0 1
2808 113 8 -0.157 6.973069227929744 7.392231703409356 5.005163307742281 1 0 1
1005 41 5 0.157 8.532111794426307 6.335130964653547 9.514324739285765 1 0 1
2133 86 8 -0.157 9.755166137903876 12.651672939749009 5.884631853814004 1 0 1
2138 86 13 0.09 12.387108127217896 11.612716279517299 4.93086627074069 1 0 1
4389 176 14 0.09 5.208119696025319 10.937233427620933 5.846465642784709 1 1 0
1018 41 18 0.09 8.394835336911381 5.495492205136993 8.75115532062086 1 0 1
2143 86 18 0.09 10.537319493137849 11.633515938086656 8.820523968159488 1 0 1
1003 41 3 -0.191 9.490997701926801 4.347843955841512 11.007301762234341 1 0 1
481 20 6 -0.201 8.587564481542802 13.266986980450152 12.886816112931676 0 0 0
2829 114 4 -0.201 11.498746151548545 6.009649781059745 5.874330444104199 1 0 1
2345 94 20 0.09 12.401014546466225 7.581913742530359 10.891069754340489 0 0 0
2822 113 22 0.09 8.959053324858186 8.316569379350216 5.1496709843834285 1 0 1
2801 113 1 -0.18 7.175211022187575 5.898315850520766 5.262203226891229 1 0 1
4390 176 15 0.09 5.287972654117024 9.248076862454344 6.411884568441891 1 1 0
1824 73 24 0.09 7.324130017424939 11.799727633799732 4.427128876365605 1 0 0
1017 41 17 0.09 9.015950476439377 6.394910049634737 11.710526109583247 1 0 1
4530 182 5 0.157 4.855443044786247 12.047797269512657 12.220829088715375 1 0 0
2807 113 7 -0.191 8.107751243078578 8.222821518156525 4.436844488778661 1 0 1
1023 41 23 0.09 5.323968895025346 4.369151350568788 9.613091972205027 1 0 1
1870 75 20 0.09 12.80483076469359 14.804207816178328 8.123869792759368 1 0 1
2146 86 21 0.09 9.076346991394821 13.019980441452324 7.77345243539861 1 0 1
2842 114 17 0.09 11.758244653217307 7.067058181593916 6.226231805362947 1 0 1
500 20 25 0.42 7.213623631595201 11.840598053977311 11.080323596271338 0 0 0
1019 41 19 0.09 6.583763491530478 6.557234674339463 8.717099822344192 1 0 1
2341 94 16 0.09 10.575563737010118 10.445145551828153 12.42567196251698 0 0 0
490 20 15 0.09 8.383001244038688 15.664400354729999 9.056292355104794 0 0 0
2350 94 25 0.42 11.7044587406902 9.945428722435706 10.624515457217687 0 0 0
2334 94 9 -0.649 12.527134070527158 10.132672045401694 11.109894404694117 0 0 0
2823 113 23 0.09 6.081474834079515 7.484036406264606 4.300950501620917 1 0 1
2343 94 18 0.09 13.02755473349668 9.746109766280806 13.045791553909629 0 0 0
2619 105 19 0.09 12.900717720633924 14.438369665012193 12.692643358779744 0 1 0
2342 94 17 0.09 10.249253091346299 8.671260323485875 12.374388684978753 0 0 0
4531 182 6 -0.201 4.380219628598711 10.724446572038696 12.833182350627629 1 0 0
2821 113 21 0.09 7.6983213215823465 9.209309995472452 4.366639456325733 1 0 1
1015 41 15 0.09 10.294287925020814 4.201875194920576 11.811068105191213 1 0 1
485 20 10 0.09 11.305513347106688 16.334615413186846 11.946450434479672 0 0 0
1024 41 24 0.09 5.419985064006305 4.366524423385864 11.397365004116864 1 0 1
1924 77 24 0.09 6.372359162368982 14.519078728846187 16.419013597992482 0 -1 1
2339 94 14 0.09 11.354276091357384 10.353496604053895 14.66385756172261 0 0 0
4740 190 15 0.09 12.233954715897191 6.305559874114477 19.372181543016275 1 0 0
1925 77 25 0.42 11.62270846040445 12.658552286251348 16.341390310753688 0 -1 1
1212 49 12 0.09 5.52034884690034 8.404805291898075 16.607923724815308 0 0 0
1941 78 16 0.09 4.3964877566911245 5.131627580065745 19.668669209591716 0 0 1
2336 94 11 0.09 13.261320577622417 8.90693404884977 15.026629866338258 0 0 0
1950 78 25 0.42 5.127734171794967 5.352925800263673 21.79904688027359 0 0 1
2340 94 15 0.09 9.701822316741865 9.59555678588689 14.530134967896972 0 0 0
1205 49 5 0.157 7.402022453660146 5.649760733181075 18.054476053328408 0 0 0
1106 45 6 -0.201 8.585008195514227 13.5117572058033 22.241169421983656 0 0 0
1943 78 18 0.09 4.951470153395905 7.7643278328736525 20.35373635100592 0 0 1
1930 78 5 0.157 4.481933351246296 6.957294523571164 20.92942590580493 0 0 1
1901 77 1 -0.18 7.361481389088354 14.254413431937506 18.4650237950707 0 -1 1
1225 49 25 0.42 6.879231114495182 5.300872360104149 19.933983779470744 0 0 0
1224 49 24 0.09 8.434521973438683 6.907301135373778 14.706972565692748 0 0 0
1223 49 23 0.09 7.45043239039994 5.826884958837464 13.75348337577261 0 0 0
1109 45 9 -0.649 10.976762045414642 13.57781943044307 21.731104265164607 0 0 0
1208 49 8 -0.157 7.597690657837248 6.209428866921723 14.805623409957056 0 0 0
4536 182 11 0.09 5.06530723361193 13.167063980945784 14.86861410642045 1 0 0
4744 190 19 0.09 9.16913253520268 5.0840941815462575 21.4222641920608 1 0 0
1103 45 3 -0.191 9.611988766930706 10.265752800936866 21.435885848892593 0 0 0
1911 77 11 0.09 7.898733277171694 13.450470230865493 18.96233075376286 0 -1 1
1110 45 10 0.09 6.60390643455871 10.559776704879134 19.56492476043894 0 0 0
1210 49 10 0.09 5.721451825873576 7.178193481672457 14.419679962200851 0 0 0
1118 45 18 0.09 9.692641098929561 12.634623080246199 20.52086725492996 0 0 0
4729 190 4 -0.201 11.742922996446213 4.206383897192239 19.23720579205814 1 0 0
1214 49 14 0.09 7.662815468827278 9.176420332959868 17.42215243394899 0 0 0
1215 49 15 0.09 8.591795799534522 7.84447147836698 16.76455120364296 0 0 0
1216 49 16 0.09 6.647502061781642 7.539195315789121 18.953382288541672 0 0 0
1910 77 10 0.09 6.409494970856419 14.362719423721591 19.073454012821443 0 -1 1
1220 49 20 0.09 9.323196488289934 5.801961270522892 17.248991301740674 0 0 0
1917 77 17 0.09 11.196126045978247 14.987342856732127 16.993395388430812 0 -1 1
1108 45 8 -0.157 6.621268742024289 12.198370366719564 21.128949355154504 0 0 0
1201 49 1 -0.18 6.320816974483548 6.904840976490891 15.2765968913966 0 0 0
4728 190 3 -0.191 12.826469684662055 5.322379946493548 19.26389730886959 1 0 0
1920 77 20 0.09 9.597957893380176 13.804899776827583 15.524523717549151 0 -1 1
2338 94 13 0.09 10.733117904699984 7.265820129131532 15.045855082255427 0 0 0
1202 49 2 -0.157 6.499766465918652 8.189178268251736 16.08530890099615 0 0 0
1102 45 2 -0.157 8.070620243228886 10.006858244459078 21.175138632738456 0 0 0
1915 77 15 0.09 9.070010015896179 15.729028847720608 16.46255625616549 0 -1 1
2327 94 2 -0.157 11.20143987358059 8.303541352000995 15.22622580411936 0 0 0
1207 49 7 -0.191 8.082716326665109 4.9347903449385715 15.611022574348711 0 0 0
2618 105 18 0.09 12.999030929665539 14.90753530069233 15.64640704149999 0 1 0
1204 49 4 -0.201 7.531936787455926 7.169966615722483 18.34655370610487 0 0 0
1125 45 25 0.42 11.658210734355126 13.103218807583414 21.206540362520382 0 0 0
1119 45 19 0.09 8.225265468979549 14.264639357912307 21.59454147789365 0 0 0
1222 49 22 0.09 9.007376728750828 4.6197038798847 15.079339822808276 0 0 0
1923 77 23 0.09 5.9473815990449 13.11656602317897 17.328602698838274 0 -1 1
1105 45 5 0.157 9.802025256068536 12.846011556401514 21.586206218890524 0 0 0
3970 159 20 0.09 12.067794285131356 9.700415544110799 19.445582198626624 1 0 0
1213 49 13 0.09 6.794955874362568 8.998004469614063 15.376463921330371 0 0 0
3975 159 25 0.42 12.02197261882748 12.114221975413301 18.91968302026452 1 0 0
496 20 21 0.09 8.187908080111292 14.783948289490558 14.384809519296004 0 0 0
498 20 23 0.09 10.468651815057441 14.82695537926566 13.910886365931882 0 0 0
1209 49 9 -0.649 7.598044280962495 5.038238333662825 19.332005066552227 0 0 0
1101 45 1 -0.18 7.352580273397195 11.103842795411495 20.292121244036043 0 0 0
4731 190 6 -0.201 10.228122281266781 5.206154013691732 21.133135330408166 1 0 0
1907 77 7 -0.191 7.750851158087851 12.734872964006179 16.30028240502922 0 -1 1
1912 77 12 0.09 8.55848632829785 15.697132171023128 19.645737914612525 0 -1 1
1211 49 11 0.09 5.717676748237496 6.154905675626265 15.828868419659939 0 0 0
1111 45 11 0.09 8.123511548179124 11.5774314587068 19.663005422040744 0 0 0
2337 94 12 0.09 10.87225722402337 8.53566761290427 16.23897935163467 0 0 0
3959 159 9 -0.649 12.420436478188664 12.080409886043622 19.80550470612573 1 0 0
1908 77 8 -0.157 6.839355064776418 13.752921102610289 17.05506753874401 0 -1 1
1217 49 17 0.09 8.42944940153501 7.331167107385275 18.969474054428417 0 0 0
1922 77 22 0.09 7.2898865742275305 12.466245422440997 15.347809592349472 0 -1 1
1218 49 18 0.09 6.335862953192876 5.458630387684321 17.756677993178382 0 0 0
1112 45 12 0.09 7.9673825866567105 9.047874813893383 20.63431319627598 0 0 0
1203 49 3 -0.191 7.6143932837530794 8.123651402311857 17.195152989573394 0 0 0
494 20 19 0.09 9.502414726832114 12.809883545616556 13.362567121349253 0 0 0
1206 49 6 -0.201 8.442961771292648 5.133221788433167 17.07975795467076 0 0 0
1107 45 7 -0.191 7.351378882130495 12.584996781685813 22.453339137348006 0 0 0
1905 77 5 0.157 10.123833009791717 13.147102635452562 17.35053129656535 0 -1 1
3956 159 6 -0.201 12.982138479937477 9.909995589698973 18.906568289720692 1 0 0
4546 182 21 0.09 5.675234617528314 10.871059409016784 14.592060508393883 1 0 0
1115 45 15 0.09 9.942959141662698 9.340275502911037 22.020969647001756 0 0 0
4745 190 20 0.09 10.231066190963588 6.027011976557096 20.408702572146804 1 0 0
1902 77 2 -0.157 8.196861758014483 15.55690461230691 18.558589915442 0 -1 1
3969 159 19 0.09 12.588301726773993 10.003045311685511 17.87695250183248 1 0 0
1909 77 9 -0.649 11.22874891532437 12.358605994133327 17.166960111324066 0 -1 1
2349 94 24 0.09 12.942389577431525 5.850446084520398 14.781131777913087 0 0 0
1921 77 21 0.09 7.8393754381971235 11.814481265310903 16.987823482942375 0 -1 1
1918 77 18 0.09 9.480205737808156 12.61535683359782 18.080230663086365 0 -1 1
1114 45 14 0.09 10.100282466964334 10.133384032729092 20.3885604972772 0 0 0
1934 78 9 -0.649 5.560913453086789 6.159443754692434 21.378922580276658 0 0 1
2625 105 25 0.42 12.836752143160851 12.608547283758273 13.984121044167065 0 1 0
1919 77 19 0.09 9.62079508211649 12.017626607334233 15.607566567535443 0 -1 1
2328 94 3 -0.191 10.789809093007694 9.460416504827869 14.357569566478842 0 0 0
2114 85 14 0.09 12.868388305206668 15.57167327535533 19.646398408155804 0 0 -1
1904 77 4 -0.201 10.456417375081791 14.702810924492898 17.725672102607852 0 -1 1
4733 190 8 -0.157 12.48295312041107 6.108466462066955 22.081502870825233 1 0 0
1123 45 23 0.09 6.655682952038667 13.071626882132994 20.509183247936512 0 0 0
1906 77 6 -0.201 9.258608675422188 12.979540217074339 16.099503986197757 0 -1 1
1916 77 16 0.09 10.781965721282507 14.700899962999575 18.76606055460766 0 -1 1
1124 45 24 0.09 5.572012112207571 12.02326257256679 21.387304819745857 0 0 0
1113 45 13 0.09 7.469209103542889 9.783027453299226 22.09518874565124 0 0 0
2333 94 8 -0.157 13.144579912792674 6.83077743925368 14.30075856910125 0 0 0
1116 45 16 0.09 11.284408762819716 11.323783363950373 22.12760984229063 0 0 0
2609 105 9 -0.649 12.481729633660404 13.092627720606101 14.71357298201999 0 1 0
1903 77 3 -0.191 9.335520870996515 15.730606655862898 17.531848298951537 0 -1 1
4749 190 24 0.09 12.649324088298945 6.968378823514374 21.4257318618383 1 0 0
1939 78 14 0.09 4.416274253672156 6.884502551588565 18.005466487142314 0 0 1
1104 45 4 -0.201 10.205138296197038 11.455422178977297 22.179303195716287 0 0 0
2326 94 1 -0.18 12.744197424102 7.91454798823519 15.236390915084833 0 0 0
4532 182 7 -0.191 4.606220553570023 10.721427148508587 14.47027379524663 1 0 0
2335 94 10 0.09 12.90969719126553 7.5027898365258485 16.202604871045033 0 0 0
2116 85 16 0.09 11.799779767516846 15.832383383975163 21.85554988140213 0 0 -1
4732 190 7 -0.191 11.074734231626701 5.604107948287618 22.347715710443083 1 0 0
4547 182 22 0.09 4.501498002038905 9.690062330179558 14.768099898128376 1 0 0
2104 85 4 -0.201 12.79661562094664 16.3529919051025 21.751044158003896 0 0 -1
4742 190 17 0.09 11.111828297973918 4.482151015547379 18.340994336071383 1 0 0
1221 49 21 0.09 7.29717094199811 4.155839514104585 15.565409980282721 0 0 0
482 20 7 -0.191 8.437759162307312 14.764977240357673 13.345079300932293 0 0 0
3858 155 8 -0.157 5.086741676741922 7.259375023695846 26.45631840150675 1 0 0
3854 155 4 -0.201 7.969321907851366 6.260531968249989 24.219354302681676 1 0 0
3852 155 2 -0.157 7.209802536779536 8.422868486077395 25.475560661486927 1 0 0
3688 148 13 0.09 11.669961005808615 7.465743528153998 30.639885704583403 1 0 0
3977 160 2 -0.157 12.539030465976298 10.568968935078543 25.377082679793904 1 0 0
1117 45 17 0.09 9.84590315797406 11.317539379377376 23.231649647633365 0 0 0
2958 119 8 -0.157 5.438333612944306 12.335523868943284 28.389848469429307 1 0 0
3510 141 10 0.09 9.472976330986356 15.74185952384223 28.972375893552474 1 1 0
3874 155 24 0.09 4.480082570243393 7.681004118568858 25.559993342498387 1 0 0
293 12 18 0.09 11.129057537324254 16.135190049288624 27.172652062901445 0 0 0
3867 155 17 0.09 7.930451985606224 5.80823169509701 23.198981498539187 1 0 0
833 34 8 -0.157 6.339720806416164 8.002744282239457 31.100110360007214 0 1 0
3676 148 1 -0.18 12.811212224261935 9.340192508674281 30.568477230206774 1 0 0
3857 155 7 -0.191 5.1374837209961495 5.66184138671551 26.418754000920043 1 0 0
2953 119 3 -0.191 5.217992535936395 13.98391883704219 25.76647935193351 1 0 0
3507 141 7 -0.191 7.820398766914351 13.485895493200928 30.897880205154404 1 1 0
2962 119 12 0.09 6.941453251885197 12.82003205889861 25.19828493359676 1 0 0
3523 141 23 0.09 8.658129374079309 13.651151456127776 28.92295972220002 1 1 0
1122 45 22 0.09 7.4457995437303595 11.76757746193583 23.186374279157288 0 0 0
3988 160 13 0.09 11.974265612231463 9.979307951758745 26.126096119887322 1 0 0
3862 155 12 0.09 8.231585213050408 8.656333691093323 25.79664063427382 1 0 0
2966 119 16 0.09 4.276035447073109 12.634579112101259 24.40914150073669 1 0 0
3521 141 21 0.09 6.976301831168145 14.101081907390217 30.66935828956752 1 1 0
3978 160 3 -0.191 12.996252940385197 9.736397092654908 24.126625647697523 1 0 0
3513 141 13 0.09 11.561149674804533 15.090260509790053 30.14544314585326 1 1 0
2973 119 23 0.09 5.891399343886622 11.748377908154293 29.13303921825428 1 0 0
300 12 25 0.42 12.772262393783265 15.208535306119522 25.08552744890512 0 0 0
3895 156 20 0.09 10.897153682284976 4.52273982685814 28.594426367526726 1 0 0
3524 141 24 0.09 9.916664664463543 13.266656067408624 30.070609790355686 1 1 0
3511 141 11 0.09 8.606805622044687 15.830315773857455 30.48729645898026 1 1 0
2952 119 2 -0.157 6.384882434198653 13.063607952322139 26.105089169937056 1 0 0
848 34 23 0.09 7.328945286926956 8.13982747799744 30.752719361709634 0 1 0
4748 190 23 0.09 12.720059880403294 6.468984882591968 23.170313606761404 1 0 0
3865 155 15 0.09 6.187299354936096 7.486354279588081 23.818838613503893 1 0 0
3868 155 18 0.09 7.918085811344538 5.612925161748715 26.242454046667895 1 0 0
3987 160 12 0.09 11.777832613737198 11.182077974644054 24.865992129305845 1 0 0
3699 148 24 0.09 12.65811312246958 11.483792295180113 31.098503915345646 1 0 0
3856 155 6 -0.201 5.961810319570913 4.999503552397024 25.265643873232342 1 0 0
3896 156 21 0.09 12.476085754428242 6.3974825702818805 28.633965262092065 1 0 0
2964 119 14 0.09 5.602659794514002 14.741326683664687 25.157367642645475 1 0 0
3990 160 15 0.09 12.201589459141598 9.11753008680609 23.658888913720066 1 0 0
296 12 21 0.09 8.210950853936284 16.130275284216577 24.467062708004168 0 0 0
3897 156 22 0.09 12.206005803720322 5.804407826792056 27.051520549510247 1 0 0
3851 155 1 -0.18 6.471182126486471 7.872788334746897 26.705085573947407 1 0 0
846 34 21 0.09 5.545608641855606 10.086351228841792 31.082697395348134 0 1 0
3864 155 14 0.09 7.647571780652789 8.349089848746223 23.426233617579257 1 0 0
284 12 9 -0.649 12.502741010468215 15.213198400682181 25.985447634996245 0 0 0
3508 141 8 -0.157 9.00794191231366 13.83504471748148 29.9672965966189 1 1 0
3853 155 3 -0.191 7.230526006502091 7.595027686768467 24.131702913508967 1 0 0
3855 155 5 0.157 7.505248445820495 5.282483381185731 25.2231472464777 1 0 0
2960 119 10 0.09 7.240482691694937 11.713526669725823 27.45146555786981 1 0 0
280 12 5 0.157 11.436808388757393 16.119212730113183 26.08246789741917 0 0 0
3863 155 13 0.09 6.665483818769639 9.447167140752985 25.350146613311832 1 0 0
849 34 24 0.09 5.755930012806598 7.834841222930395 30.221843532922428 0 1 0
294 12 19 0.09 9.777967884926124 14.711535649633781 25.888031725969366 0 0 0
3882 156 7 -0.191 12.666444769897359 5.536400718237731 28.016697890851425 1 0 0
3522 141 22 0.09 7.367416619579997 12.45780422051392 30.652276003481145 1 1 0
1121 45 21 0.09 6.496959666103795 13.247751122932085 22.803045008593312 0 0 0
281 12 6 -0.201 10.201716268032255 15.56708825729438 25.373793901261582 0 0 0
3870 155 20 0.09 5.679997406145314 5.39001438958581 24.2716900594661 1 0 0
3861 155 11 0.09 7.190898116860636 7.173840837151211 27.178705935746546 1 0 0
4746 190 21 0.09 11.12202732711507 4.851841906357436 23.135942322736188 1 0 0
2965 119 15 0.09 4.87421461732597 14.560470220770183 26.65611706539534 1 0 0
3873 155 23 0.09 4.524197353467879 7.488303153520257 27.403725753894218 1 0 0
2963 119 13 0.09 7.031944484478659 13.812726360055565 26.619512263968115 1 0 0
2974 119 24 0.09 5.515795901831038 13.383262262158668 28.67301859265841 1 0 0
3502 141 2 -0.157 10.733521378168835 15.569123004954799 30.767618636886866 1 1 0
3871 155 21 0.09 5.622314093904073 5.290351055440238 27.318538855961997 1 0 0
2951 119 1 -0.18 6.143978825925174 11.93785320013318 27.11398038967219 1 0 0
3985 160 10 0.09 12.959606642296096 12.283769112602524 26.340070167108973 1 0 0
835 34 10 0.09 6.272982279888678 5.895576794074424 30.94323860504523 0 1 0
3860 155 10 0.09 6.239733316036805 8.653486354434694 27.441750082324077 1 0 0
3677 148 2 -0.157 11.93138562827589 8.397946471122198 31.24014140629208 1 0 0
3866 155 16 0.09 9.014711671532508 6.589461597490828 24.50825996540467 1 0 0
3881 156 6 -0.201 11.978920309341303 4.369873658030353 28.597624184381452 1 0 0
295 12 20 0.09 10.542601804474543 15.220263120140672 24.387468918728356 0 0 0
2961 119 11 0.09 5.698380076585051 11.053070653141809 26.6020572737796 1 0 0
3685 148 10 0.09 12.282376747520859 9.685616721969616 29.629395585402676 1 0 0
3501 141 1 -0.18 9.41195977475025 15.367528808532455 30.025583010621773 1 1 0
3690 148 15 0.09 9.817086513260987 9.04239240087961 30.83102820518773 1 0 0
4747 190 22 0.09 10.562671112635941 6.516851877484678 22.73393169419883 1 0 0
2125 85 25 0.42 12.55929139342646 14.462901969289677 22.881678493757008 0 0 -1
1120 45 20 0.09 8.90868952452749 14.13086301549445 23.138188491140873 0 0 0
3894 156 19 0.09 12.383305278188555 4.3185301075275735 29.646301559595738 1 0 0
3892 156 17 0.09 11.585738578825282 4.14523932714116 25.958933458530144 1 0 0
3678 148 3 -0.191 10.540904334764813 9.008889880053292 31.663235763653297 1 0 0
1197 48 22 0.09 11.134268294391058 13.91518455018601 38.83106407408091 0 0 0
2820 113 20 0.09 9.294039453454769 6.680610575993317 40.115658245484894 1 0 0
1816 73 16 0.09 5.490459335549622 11.242852159012628 35.881836460580544 1 0 -1
2819 113 19 0.09 9.626838883440053 8.324199372686191 39.46536109644501 1 0 0
1806 73 6 -0.201 8.252289329361151 11.569885001700658 37.822558934313776 1 0 -1
1807 73 7 -0.191 7.903341037020495 11.193902113998089 39.26458076648582 1 0 -1
1810 73 10 0.09 5.628649792607242 13.318989647189992 40.75250470244899 1 0 -1
2813 113 13 0.09 8.362936009110715 4.778541677385071 40.62056608946419 1 0 0
2815 113 15 0.09 6.181103895688299 4.320395807483964 39.09037510689126 1 0 0
4488 180 13 0.09 4.233345342193275 6.362138115185663 36.92758283452929 0 1 0
2809 113 9 -0.649 8.041421723384998 8.006527295644469 37.56079384984987 1 0 0
2818 113 18 0.09 6.682770283734219 8.000253423173557 39.052671894172704 1 0 0
834 34 9 -0.649 7.98906068911428 9.613835665988145 34.96662110223093 0 1 0
3516 141 16 0.09 10.131059975485801 16.12435863313229 33.70937373281947 1 1 0
4698 188 23 0.09 4.84157114454708 15.951204905599552 40.22787779298157 1 0 -1
809 33 9 -0.649 10.271502626595048 6.6388212697503945 36.737614402794165 0 1 0
830 34 5 0.157 7.163485880363139 8.959866440351309 33.98898681670783 0 1 0
807 33 7 -0.191 12.437562359478976 9.110839319544645 38.657309400086405 0 1 0