LAMMPS data file via write_data, version 29 Aug 2024, timestep = 1000000, units = real

5103 atoms
7 atom types
4374 bonds
6 bond types
5832 angles
8 angle types
4374 dihedrals
10 dihedral types

2.212503705357957 42.533646294639084 xlo xhi
3.244322538961214 43.18416746104151 ylo yhi
2.394408732775819 43.31253126719615 zlo zhi

Masses

1 15.999
2 12.011
3 32.06
4 1.008
5 1.008
6 1.008
7 1.008

Pair Coeffs # lj/charmmfsw/coul/long

1 0.192101 3.14487 0.192101 3.14487
2 0.055999 3.58141 0.01 3.38542
3 0.45 3.56359 0.45 3.56359
4 0.045999 0.400014 0.045999 0.400014
5 0.035 2.38761 0.035 2.38761
6 0.035 2.38761 0.035 2.38761
7 0.1 0.801809 0.1 0.801809

Bond Coeffs # harmonic

1 428 1.42
2 198 1.818
3 545 0.96
4 309 1.111
5 309 1.111
6 275 1.325

Angle Coeffs # charmm

1 56.24 112.27 0 0
2 50 106 0 0
3 45.9 108.89 0 0
4 45.9 108.89 0 0
5 38.8 95 0 0
6 35.5 109 5.4 1.802
7 46.1 111.3 0 0
8 46.1 111.3 0 0

Dihedral Coeffs # charmmfsw

1 0.7718 1 0 1
2 0.24 1 0 1
3 0.2 3 0 1
4 0.2 3 0 1
5 0.18 3 0 1
6 0.18 3 0 1
7 1.0206 2 0 0
8 0.6151 3 0 0
9 0.15 2 0 0
10 0.27 3 0 0

Atoms # full

393 57 1 -0.556 3.1113251882220823 6.526717512947364 7.954239831176654 1 2 1
394 57 2 0.066 4.2305259919134794 5.882233491303224 7.264814922370724 1 2 1
396 57 4 0.397 2.5049466484548555 6.746852687149785 7.235311177290713 1 2 1
395 57 3 -0.247 5.247138318507275 4.915888271200062 8.420478312883787 1 2 1
398 57 6 0.09 3.777314071658018 5.148711164907818 6.550988272495318 1 2 1
397 57 5 0.09 4.770706906087902 6.618986211551006 6.616225598735156 1 2 1
399 57 7 0.16 5.169045282702741 3.8362373672750323 7.554289472183446 1 2 1
4201 601 1 -0.556 8.575621269912112 6.5023619298727 3.094859894094281 -1 -1 1
576 83 2 0.066 8.34234861690324 3.9896405765072394 5.335022282314275 2 1 0
1207 173 3 -0.247 4.634216822263671 3.8254111707275418 4.160984673340513 -1 -2 -2
112 16 7 0.16 9.974945129926752 9.048527177381938 8.971733073985199 1 1 4
581 83 7 0.16 10.412961397532602 4.518090740540211 4.606056525906402 2 1 0
578 83 4 0.397 8.944187915932481 4.996860489500288 6.871313791443357 2 1 0
575 83 1 -0.556 8.264543718271444 5.155523332168859 6.161565627847411 2 1 0
3018 432 1 -0.556 5.758347239854697 7.761288282094898 10.18284007946114 1 -1 2
2844 407 2 0.066 10.478953889200879 5.137844975757194 10.697005186428866 1 0 2
2845 407 3 -0.247 8.825135501259561 5.504768276619061 11.339050258822107 1 0 2
2843 407 1 -0.556 10.266368916278687 3.9620017284308062 9.923161550718191 1 0 2
577 83 3 -0.247 10.089264036581799 3.4671737662411513 5.3338561916116 2 1 0
3019 432 2 0.066 5.2063263827953286 8.224340901568862 11.34695993945937 1 -1 2
4622 661 2 0.066 7.431159664887776 13.239438925488976 9.744660662328437 1 -1 -1
109 16 4 0.397 9.596999074159699 6.648136898703071 6.071675427462342 1 1 4
579 83 5 0.09 8.018614610148305 4.171898790412279 4.294002118141917 2 1 0
4202 601 2 0.066 7.614308995061156 7.550270345101657 3.110036413431355 -1 -1 1
1257 180 4 0.397 3.5853003994335904 10.082616361095731 4.896943147998588 -1 1 0
108 16 3 -0.247 9.661178166552078 7.9419177266789305 8.30712384268284 1 1 4
4542 649 6 0.09 11.59214041427367 15.642682966561772 8.639355456132474 0 -2 -1
2846 407 4 0.397 11.090955469473906 3.5365165589981373 9.852660801367271 1 0 2
2779 397 7 0.16 2.9437334534411956 5.050407824454678 12.241369656246885 1 0 0
4203 601 3 -0.247 5.942021187316298 6.954041220239851 3.4917878659947332 -1 -1 1
2848 407 6 0.09 11.314223707207407 5.006932116844925 11.428284072562118 1 0 2
106 16 1 -0.556 10.46416301652408 7.068675574164281 5.994876204677458 1 1 4
2847 407 5 0.09 10.749380297808427 5.844022207195445 9.919460230565209 1 0 2
107 16 2 0.066 10.155789799169735 8.280637460113649 6.590629892660765 1 1 4
111 16 6 0.09 11.025001315660088 8.91222249241022 6.547580567375301 1 1 4
110 16 5 0.09 9.363865775773217 8.789926018153512 5.96066203021668 1 1 4
3021 432 4 0.397 5.576437716941898 6.812174851172877 10.142570134400959 1 -1 2
1211 173 7 0.16 5.675788563491746 4.128954461825328 4.968716436523222 -1 -2 -2
4540 649 4 0.397 11.958023841244515 13.818551052474643 10.855922516667396 0 -2 -1
2775 397 3 -0.247 2.8258270196874316 3.744568881624693 11.999525942198922 1 0 0
3022 432 5 0.09 4.947114248534934 9.278284438642643 11.165049763529767 1 -1 2
3023 432 6 0.09 6.000798102721621 8.130576763385442 12.096354354627985 1 -1 2
2461 352 4 0.397 4.566092716473635 8.525625999538853 7.775150408619239 1 0 2
4206 601 6 0.09 7.99812961184059 8.340343293835168 3.811583414851608 -1 -1 1
2462 352 5 0.09 6.406701926881236 7.885841174606285 6.608726323047304 1 0 2
1255 180 2 0.066 2.543186166604705 10.52965320287841 3.334111699261287 -1 1 0
1017 146 2 0.066 2.979357529397436 11.920727998770637 9.412528618505766 2 3 0
3872 554 1 -0.556 10.637512697313264 15.146097702112407 5.224883192128493 1 0 -1
3877 554 6 0.09 10.377774166520755 14.052266270018261 3.3884955231832867 1 0 -1
4623 661 3 -0.247 8.575439120716915 11.93735325996574 10.245106700893121 1 -1 -1
4624 661 4 0.397 6.689625064908545 14.62491780720728 10.65321061248569 1 -1 -1
4621 661 1 -0.556 7.509964725058207 14.062450706021584 10.854088155190414 1 -1 -1
2774 397 2 0.066 4.590734268837 3.3766570976018424 12.095082255661884 1 0 0
3878 554 7 0.16 8.567264371966242 15.46655267762219 3.706688919704758 1 0 -1
3049 436 4 0.397 12.136598836765227 5.895846463555333 6.451690022925979 1 0 0
1022 146 7 0.16 3.453146849780218 12.440581860059599 11.740700415047762 2 3 0
2458 352 1 -0.556 4.804645079616385 9.237225595387521 7.1455477456064305 1 0 2
4538 649 2 0.066 11.261932764820713 15.102015325960235 9.564979262060895 0 -2 -1
2464 352 7 0.16 6.542305340334753 11.127092461458304 6.747986708922665 1 0 2
1256 180 3 -0.247 4.185230099118261 10.746388310128253 2.58525656748926 -1 1 0
3020 432 3 -0.247 3.77096880393505 7.229386034221156 11.674143823898378 1 -1 2
4627 661 7 0.16 7.509064111440368 11.220680161790028 10.577129679619153 1 -1 -1
3876 554 5 0.09 10.167363028143297 13.118727622844764 4.936593513313919 1 0 -1
4353 622 6 0.09 5.093285841930378 13.398465802450428 6.156621265977234 -2 1 -1
4541 649 5 0.09 10.326968337380233 14.43884086370457 9.302712020552065 0 -2 -1
1021 146 6 0.09 3.174129867099159 11.099170120985427 8.697314320437512 2 3 0
227 33 3 -0.247 11.654256481920214 12.150969886448003 6.955112366796151 -2 2 1
3875 554 4 0.397 11.449573577959038 14.770053208775144 5.497217095310972 1 0 -1
4354 622 7 0.16 4.702466915414435 12.796725612819658 3.711572370897019 -2 1 -1
3024 432 7 0.16 3.390831910167876 7.279891196543188 10.410280225840685 1 -1 2
4351 622 4 0.397 3.7560733127488937 15.305447173622783 6.482663059586963 -2 1 -1
4626 661 6 0.09 6.4119702577007045 12.908073136689207 9.56299056789538 1 -1 -1
2463 352 6 0.09 6.717042617004622 9.056473314731566 7.984657050700237 1 0 2
2849 407 7 0.16 9.460348866057505 6.526384828813583 11.829679128368785 1 0 2
1254 180 1 -0.556 2.7613400210259305 9.753331861055553 4.522697833703479 -1 1 0
4204 601 4 0.397 8.347543962983082 5.901788717727727 3.8393525272131845 -1 -1 1
1020 146 5 0.09 2.973483181076606 12.944873955609918 8.862308872045947 2 3 0
2778 397 6 0.09 5.173208599119624 4.374469351571387 12.079947767043558 1 0 0
4349 622 2 0.066 4.066421478296132 13.429841136662025 5.78902601897377 -2 1 -1
3873 554 2 0.066 9.963688702178416 14.122628274477568 4.469128724452127 1 0 -1
4348 622 1 -0.556 3.304599332188954 14.419436530053362 6.447506050944555 -2 1 -1
4829 690 6 0.09 8.946963347184685 15.751942514991814 6.899305938888212 0 0 1
1834 262 7 0.16 3.4233140705484852 15.887734036852176 9.86839636377652 0 0 0
829 119 3 -0.247 11.698028257805651 11.101763912094903 11.678350708443492 2 1 -1
2459 352 2 0.066 6.154574025789339 8.920134781978328 6.970938765263679 1 0 2
4350 622 3 -0.247 4.057075380662779 13.8496942814924 4.137026864502535 -2 1 -1
4352 622 5 0.09 3.6021980201855097 12.417038781123848 5.880084679913772 -2 1 -1
4625 661 5 0.09 7.852751181651677 13.70976624245603 8.743696690246857 1 -1 -1
4539 649 3 -0.247 10.832057519959832 16.18751989430634 10.983495933444487 0 -2 -1
1018 146 3 -0.247 4.106397025771863 11.904007626454483 10.741597267901968 2 3 0
1830 262 3 -0.247 4.679761670149583 15.712211332954563 10.369478510700866 0 0 0
3874 554 3 -0.247 8.129884704274597 14.40119306176476 4.312779590344324 1 0 -1
2460 352 3 -0.247 6.894123112734213 10.194048927304735 5.908818074981072 1 0 2
4543 649 7 0.16 10.651197174158286 15.094777624269414 11.69100912352422 0 -2 -1
3770 539 4 0.397 7.06943756868443 13.280302571865862 12.546424173875272 1 3 0
287 41 7 0.16 2.277907657882025 16.229932884131976 11.231014952607355 0 0 1
4828 690 5 0.09 7.133404249526615 16.315045551673165 6.946966755260941 0 0 1
4537 649 1 -0.556 12.234651809613748 14.221559913564187 10.030335768872579 0 -2 -1
1501 215 3 -0.247 12.230410297919994 9.944630042080075 4.024004665183079 0 1 1
4207 601 7 0.16 5.959988133089386 6.153234940609005 2.43740706446336 -1 -1 1
3964 567 2 0.066 10.701052600222075 5.224475219412983 16.539489229897796 0 -2 2
5046 721 6 0.09 2.5874060751138077 15.427545091836944 14.831727845166919 1 1 1
1114 160 1 -0.556 4.706430103257089 4.753464335497741 19.666115052435835 0 -1 1
1117 160 4 0.397 4.440810826025443 4.683367881455857 20.572828216268654 0 -1 1
1115 160 2 0.066 6.076427442022268 4.457197145920476 19.614305215941403 0 -1 1
1116 160 3 -0.247 6.989479313097296 5.0840372039360044 21.11704338152851 0 -1 1
1214 174 3 -0.247 4.010850131787478 8.093373062727004 21.562505562651467 2 0 1
222 32 5 0.09 11.154401340249159 8.998821260849368 14.964291161008706 1 0 1
220 32 3 -0.247 8.843966084776728 8.00175904849717 14.603975427579345 1 0 1
2700 386 5 0.09 10.176954956589263 5.979647859855428 20.11054841992182 1 0 2
3081 441 1 -0.556 11.50306982026878 14.340048979802987 15.802322031832764 0 1 0
832 119 6 0.09 11.69812233694157 11.620263793698234 14.025374143322823 2 1 -1
2213 317 1 -0.556 3.5109993980951737 5.315751599020499 15.895499308139765 0 2 -1
2215 317 3 -0.247 6.082679955508857 5.496779048213041 15.97766862256512 0 2 -1
2214 317 2 0.066 4.474141189412522 6.097312454996533 15.242893785272594 0 2 -1
2218 317 6 0.09 4.4592961450204145 5.952367062847765 14.172277601231807 0 2 -1
2217 317 5 0.09 4.15148541223283 7.158446748740044 15.432826238767655 0 2 -1
3967 567 5 0.09 11.46320008751245 4.426437723918006 16.292555106725697 0 -2 2
2697 386 2 0.066 10.935548860601413 5.174565843124547 20.497295765618208 1 0 2
1118 160 5 0.09 6.584346997553718 4.82700773887886 18.612771806980724 0 -1 1
3968 567 6 0.09 10.50722423241631 5.645937858350948 15.583973614592251 0 -2 2
3010 430 7 0.16 8.40932455956772 8.07545772102014 17.311407175362156 -1 1 0
3006 430 3 -0.247 7.691519106303552 7.884537909439023 18.40827050851831 -1 1 0
2219 317 7 0.16 6.524833492531744 6.657359162976271 16.54762515698336 0 2 -1
1215 174 4 0.397 2.6857155783900293 6.780666559534639 18.987171755356325 2 0 1
218 32 1 -0.556 10.185301964633217 9.146740159876607 16.74642624796657 1 0 1
1212 174 1 -0.556 2.5492912499692943 7.686173979331257 19.247050582329678 2 0 1
3086 441 6 0.09 11.404052235259146 13.570886257124423 17.66862776146335 0 1 0
1213 174 2 0.066 3.8531274933113044 8.069445296595445 19.757960607603977 2 0 1
224 32 7 0.16 8.42653822910405 7.566879792545509 15.786762682382356 1 0 1
2696 386 1 -0.556 12.046318237520245 4.951142027233717 19.601031098407006 1 0 2
3966 567 4 0.397 11.79811366470696 5.942430426305444 18.024438593957143 0 -2 2
219 32 2 0.066 10.102395949938714 9.18469218090549 15.318856063983496 1 0 1
2457 351 7 0.16 9.079319140568396 14.667026537773122 17.942641108288854 -1 -2 0
3963 567 1 -0.556 11.192343449986055 6.319862159106668 17.314935239755293 0 -2 2
828 119 2 0.066 11.585878824621014 12.097610079036448 13.090083844013833 2 1 -1
1995 285 7 0.16 8.80726798524272 16.503113518818264 19.42504600246381 1 1 1
3772 539 6 0.09 6.23287634347013 11.235285176100298 12.833185232218195 1 3 0
2486 356 1 -0.556 4.123236103475509 3.8025101158592785 22.56959998023954 0 1 0
4421 632 4 0.397 8.356366701040681 15.903292441285126 22.286697904467594 1 1 0
1923 275 5 0.09 6.685623753231794 12.08226646454267 19.70664122592988 0 2 0
3969 567 7 0.16 9.727744553909055 4.99325545821033 18.5578899344754 0 -2 2
4418 632 1 -0.556 8.473345213857053 15.018505518757593 22.54297542137601 1 1 0
1119 160 6 0.09 6.167054656626377 3.3613046121760486 19.39081099384134 0 -1 1
223 32 6 0.09 9.863239071285909 10.262065613510703 15.107200316034003 1 0 1
3965 567 3 -0.247 9.315617950546336 4.525089130244044 17.354246985383188 0 -2 2
1217 174 6 0.09 4.697550234300886 7.430773249775265 19.404940245341653 2 0 1
2701 386 6 0.09 11.371308248513436 5.631974426286307 21.37594210737808 1 0 2
1218 174 7 0.16 3.67287382427846 6.786764543376062 21.744225544941706 2 0 1
2702 386 7 0.16 9.26193271739223 4.187912153718077 21.673162656906268 1 0 2
3082 441 2 0.066 11.863028478280368 13.252464668429502 16.648552996922554 0 1 0
4617 660 4 0.397 12.186805745006971 8.08407342698002 18.81968442251462 2 0 1
3768 539 2 0.066 6.311022994583808 11.90465639205994 13.742403816007965 1 3 0
5042 721 2 0.066 3.4882708777241973 16.00992230797464 14.467600427548629 1 1 1
2216 317 4 0.397 4.104930253309741 4.607836847470146 16.26173131855267 0 2 -1
5043 721 3 -0.247 4.868178817564757 16.018887577321173 15.740803861053122 1 1 1
3089 442 2 0.066 2.4357809870006486 9.937497111507405 16.608496423839043 1 0 -1
3640 520 7 0.16 2.51544532720662 10.069989297862815 21.010033913578457 0 0 -1
221 32 4 0.397 10.417614283686005 8.255042451161904 17.106523710217964 1 0 1
1216 174 5 0.09 4.15045170988322 9.126021915211616 19.389568915053246 2 0 1
3007 430 4 0.397 5.171358381334244 9.74311397631777 16.850918594437537 -1 1 0
3767 539 1 -0.556 7.025799484942867 13.111658045700526 13.466709652391973 1 3 0
3005 430 2 0.066 6.703088511813133 9.35458426863792 18.09349102003545 -1 1 0
831 119 5 0.09 10.593258966027276 12.536587954003783 13.181944482604816 2 1 -1
852 122 5 0.09 10.793582263619985 13.571153099008093 20.24643583368233 -2 -1 1
2698 386 3 -0.247 10.189708084303366 3.6012058893583667 20.990186193711647 1 0 2
1919 275 1 -0.556 5.163404281941992 11.62953364131154 20.8830105474116 0 2 0
4596 657 4 0.397 3.832424134471528 14.372403303049921 17.882713630947695 2 1 1
854 122 7 0.16 10.340727498873811 10.567764533112735 21.59396243906592 -2 -1 1
3085 441 5 0.09 11.37465675917858 12.236912768268482 16.382972674915564 0 1 0
1120 160 7 0.16 6.1969812783382086 4.5061702337841485 22.080659181052546 0 -1 1
1924 275 6 0.09 7.078987444181934 12.367047583472411 21.512380358502313 0 2 0
3771 539 5 0.09 6.886606621704875 11.365489303747303 14.471389895436367 1 3 0
849 122 2 0.066 10.970675046987658 12.851470762602846 21.075162507285604 -2 -1 1
2456 351 6 0.09 6.835068103728468 13.332903633912217 16.5853450930019 -1 -2 0
2454 351 4 0.397 7.6462384016735285 14.354077908043255 15.035088314322474 -1 -2 0
5045 721 5 0.09 3.920798712869188 15.518216006542243 13.586307361922872 1 1 1
3769 539 3 -0.247 4.710615647207329 12.363866185724126 14.352303078488415 1 3 0
3093 442 6 0.09 2.926910591350362 8.927378084002596 16.407238505142274 1 0 -1
1920 275 2 0.066 6.305550316740203 12.471360807513365 20.684637963290225 0 2 0
2455 351 5 0.09 8.248809127822543 12.156439042387067 16.114740718670227 -1 -2 0
853 122 6 0.09 10.40193873897315 13.128235698229947 21.934360705979167 -2 -1 1
3004 430 1 -0.556 5.976212163194733 9.203903002369152 16.917805648824753 -1 1 0
3009 430 6 0.09 7.434183765665204 10.213343562437114 18.014997278252896 -1 1 0
3084 441 4 0.397 10.531722647442422 14.433507771161493 15.838069883941076 0 1 0
1922 275 4 0.397 5.123626660739937 11.444570093010359 21.824837139381817 0 2 0
850 122 3 -0.247 10.582704734759139 11.201136834660629 20.418392962168994 -2 -1 1
3091 442 4 0.397 3.1469188741345393 11.469895615936947 17.48360515377696 1 0 -1
3008 430 5 0.09 6.087580640016569 9.674266255554587 18.958427550294253 -1 1 0
3773 539 7 0.16 4.418330682292295 11.29269844700998 15.10378881072641 1 3 0
2451 351 1 -0.556 8.43760790181259 14.232405132165429 15.678874164693413 -1 -2 0
1925 275 7 0.16 5.423643092975441 14.096282073415257 19.27436254690026 0 2 0
2452 351 2 0.066 7.972611507201469 13.225312873065937 16.574896387836766 -1 -2 0
1921 275 3 -0.247 5.6721387326095005 14.17010283370903 20.55646225113778 0 2 0
2453 351 3 -0.247 8.645917624126827 13.41116217703245 18.144986457435994 -1 -2 0
4593 657 1 -0.556 3.313427539671643 13.512847601882985 18.10901341005477 2 1 1
3088 442 1 -0.556 3.510302237327331 10.71501707770756 17.070168254624836 1 0 -1
1307 187 5 0.09 2.4667433522047455 14.476147822056106 21.885658921841102 1 -4 0
2776 397 4 0.397 4.820324678872015 3.3731458717448226 13.898607336318031 1 0 0
1309 187 7 0.16 3.9589939710410067 16.140743120210715 22.852525726499113 1 -4 0
4090 585 2 0.066 5.5175941118551615 7.08528796959573 27.12547539871937 1 0 0
185 27 3 -0.247 4.061608380317033 5.69618041527198 32.24625011938419 0 1 1
1230 176 5 0.09 9.735855070212452 6.7993182230634215 30.544648164607665 -3 0 -1
4092 585 4 0.397 5.278031540219425 8.134352411323134 28.796496864508093 1 0 0
1227 176 2 0.066 8.655804244481313 6.7240722365775305 30.364191619681076 -3 0 -1
4091 585 3 -0.247 6.8829226284917 6.232576783787716 26.185130211699324 1 0 0
4089 585 1 -0.556 6.012024018724949 7.587421421371736 28.378804077410322 1 0 0
1226 176 1 -0.556 8.017142608817906 6.755902422804098 31.603835885221866 -3 0 -1
1231 176 6 0.09 8.414350867752397 7.603545914796077 29.734671938533957 -3 0 -1
3389 485 1 -0.556 8.382153906250862 9.362213217588405 27.79622823405597 -1 0 0
3392 485 4 0.397 7.580682219233651 8.819582797139276 27.930593216356534 -1 0 0
3436 491 6 0.09 9.099033559551081 7.483212083937726 23.058313087008155 1 -1 0
4095 585 7 0.16 7.755324806135132 7.277868020723718 26.12021323915081 1 0 0
2924 418 5 0.09 9.67096911992915 5.461031835655226 24.466789304913917 -1 3 -2
3390 485 2 0.066 7.757616276084346 10.581619568921994 27.36431959531349 -1 0 0
1948 279 2 0.066 2.3694505085120765 4.562035228843067 27.818734250381446 1 1 1
2922 418 3 -0.247 10.407698223576865 6.723054790056951 26.494309932222347 -1 3 -2
3432 491 2 0.066 9.199310635592004 8.545072192228494 23.518485976570137 1 -1 0
2769 396 4 0.397 3.3777215424585085 9.347511932713818 30.377344348699665 0 3 0
3393 485 5 0.09 7.374970235186847 10.446686449047515 26.31603221108533 -1 0 0
3665 524 4 0.397 11.346094351574799 8.522387297753962 32.85620226648413 1 1 -2
4844 692 7 0.16 3.8059739816866207 15.941091569435917 25.66045491260729 1 -3 0
1228 176 3 -0.247 8.170365835782512 5.1933118790603565 29.488592310197085 -3 0 -1
487 70 4 0.397 10.142917363817723 5.020252360891149 33.04012517760019 -4 3 0
2926 418 7 0.16 11.477788031151945 7.124497037297104 25.92889395688135 -1 3 -2
471 68 2 0.066 3.4047648371766783 14.305088236240557 31.41824158767398 0 1 0
1952 279 6 0.09 2.5203857341278026 5.6862941694856115 27.54399244766902 1 1 1
505 73 1 -0.556 3.879489072572693 9.612840496702866 32.16694952955493 1 0 1
2920 418 1 -0.556 9.570526219797431 4.254548043379751 26.175566124892878 -1 3 -2
2923 418 4 0.397 8.91048024930615 4.768697693287157 26.628949943396684 -1 3 -2
189 27 7 0.16 4.088769345720099 6.838642574585583 31.56011114298684 0 1 1
3431 491 1 -0.556 10.276266011780782 9.245700545002107 23.025318449254343 1 -1 0
2921 418 2 0.066 10.257580488844587 5.248246144325771 25.42556796877818 -1 3 -2
2766 396 1 -0.556 3.3157346475691702 9.062361003574635 29.422061792989435 0 3 0
874 125 6 0.09 6.745706347324263 3.491658086750635 26.25526004949743 3 4 1
906 130 3 -0.247 11.979459377964963 8.5258939391731 30.20495613484618 -1 1 1
506 73 2 0.066 2.866522425245013 10.320766634403533 32.91260996361824 1 0 1
4094 585 6 0.09 4.764174809121859 6.310047185023006 27.37391088271999 1 0 0
908 130 5 0.09 11.707526714934877 9.700191000960746 28.092605380237092 -1 1 1
4093 585 5 0.09 5.082800961865063 7.909906280381404 26.519500866247746 1 0 0
186 27 4 0.397 6.268244257385685 7.316855677105191 32.797192694636294 0 1 1
1232 176 7 0.16 6.858409637406212 5.6591132572241865 29.28138610477994 -3 0 -1
3435 491 5 0.09 9.200797499824244 8.551633125774432 24.618125703717485 1 -1 0
2925 418 6 0.09 11.251188971269093 4.813250989961865 25.13946464195723 -1 3 -2
708 102 1 -0.556 6.257328169375112 11.663971885218949 31.653043418036933 1 -2 -2
476 68 7 0.16 3.041698320339587 14.00652764527655 29.06199185142023 0 1 0
666 96 1 -0.556 10.544439644310584 11.83222457893032 24.00118929240957 0 0 -1
3391 485 3 -0.247 6.324926836969874 10.988336840089914 28.362980176902905 -1 0 0
4398 629 2 0.066 11.58259118027471 3.35073725636313 29.86054849032013 -2 3 0
875 125 7 0.16 8.674483642031745 3.293983855150834 24.751819915076457 3 4 1
3395 485 7 0.16 6.931224710119409 11.310776008753098 29.512569657362523 -1 0 0
3394 485 6 0.09 8.53456241391654 11.419176333719022 27.402220860844412 -1 0 0
481 69 5 0.09 10.696037341751927 11.153696819468937 31.189341651982772 -1 0 -2
5102 729 6 0.09 7.725841189695352 13.655825580142388 28.469101356122078 1 0 -1
472 68 3 -0.247 3.942044995442865 13.391070947189858 29.895504290899925 0 1 0
470 68 1 -0.556 2.990968222586062 13.438966535836247 32.44918961818345 0 1 0
478 69 2 0.066 9.786410493468933 11.589436244887947 31.616681449038257 -1 0 -2
711 102 4 0.397 5.432303457578772 11.142780233906969 31.710050711463158 1 -2 -2
482 69 6 0.09 8.983469303691411 10.885150045475632 31.413805425609468 -1 0 -2
2772 396 7 0.16 3.193138039852589 9.383409012129745 26.861861051057815 0 3 0
1308 187 6 0.09 2.4498530093164526 14.235437818498585 23.566856212966268 1 -4 0
3434 491 4 0.397 10.130919564939429 10.130172335722207 23.359861517593014 1 -1 0
480 69 4 0.397 8.597212712306932 12.991466975830063 31.381164725483977 -1 0 -2
1276 183 2 0.066 12.23197171202471 16.171700630882786 24.688388164796308 0 1 1
4779 683 5 0.09 10.878955050489147 15.978227007430934 32.41734707244116 -1 1 0
669 96 4 0.397 10.224045107497485 12.733942078065454 24.230273791288298 0 0 -1
4104 587 2 0.066 4.010454431182629 10.85497611061801 24.55353937524162 -1 0 1
1281 183 7 0.16 12.018925025960819 14.73570455061036 22.951790185601947 0 1 1
4840 692 3 -0.247 4.062616538102214 14.993245513810383 26.53175253951048 1 -3 0
4399 629 3 -0.247 11.987560611022749 5.0066396596864715 30.703499849524064 -2 3 0
483 69 7 0.16 10.86330848664936 13.0354279389924 33.044603698408935 -1 0 -2
3437 491 7 0.16 7.847716728639686 10.375607270928882 23.95354216286595 1 -1 0
4108 587 6 0.09 3.328240728657458 10.550403455960803 23.75720538461984 -1 0 1
477 69 1 -0.556 9.441209123679831 12.76554491206059 30.96381703999116 -1 0 -2
4419 632 2 0.066 8.309661609791512 15.154282613087199 23.912006011608295 1 1 0
5037 720 4 0.397 11.464171317942322 12.904235490480406 30.685097268223664 2 1 0
4402 629 6 0.09 11.776267973752901 3.478812526832 28.748920619883265 -2 3 0
1229 176 4 0.397 8.391288180556371 5.945047402564688 31.906711283786407 -3 0 -1
4423 632 6 0.09 8.443795741105333 14.113055008744471 24.354388792476044 1 1 0
1275 183 1 -0.556 11.839400518442199 14.950952990606714 25.36769234453393 0 1 1
4424 632 7 0.16 6.367909913271209 15.400553262904795 25.298782981183425 1 1 0
4780 683 6 0.09 9.162406531678865 15.924385907372551 31.83712330683324 -1 1 0
5097 729 1 -0.556 8.312357491952422 15.014800520947812 26.988239127138314 1 0 -1
4106 587 4 0.397 5.364525387558466 9.665316322639459 23.964062827283062 -1 0 1
5038 720 5 0.09 11.993059923442908 13.604506556794062 28.714603693169025 2 1 0
4103 587 1 -0.556 4.815817592144113 9.6912509475821 24.798014704016136 -1 0 1
5101 729 5 0.09 8.869565420727518 14.788801296641118 29.087064369008306 1 0 -1
667 96 2 0.066 11.930552223081888 11.989077836640083 24.248061622060668 0 0 -1
4109 587 7 0.16 5.789149307897818 12.225942630179205 25.176219430090036 -1 0 1
5098 729 2 0.066 8.026301903604857 14.708417151023667 28.376580081187058 1 0 -1
5099 729 3 -0.247 6.742476242231735 15.80751406042395 28.99227450187931 1 0 -1
5100 729 4 0.397 8.283371859299624 15.967261266957662 26.93291767424516 1 0 -1
4839 692 2 0.066 2.3466638981232673 14.48751363039111 26.715059348256595 1 -3 0
4105 587 3 -0.247 5.076542329233066 12.179675699411055 24.02550551010505 -1 0 1
5103 729 7 0.16 6.448567609100019 16.409758834213008 27.87792734688801 1 0 -1
4107 587 5 0.09 3.5557381001493695 11.273561624306499 25.458565938729517 -1 0 1
709 102 2 0.066 6.414194049829173 12.337279301843028 32.949860021992684 1 -2 -2
508 73 4 0.397 4.088151630040546 8.85840411506593 32.77705714030185 1 0 1
474 68 5 0.09 4.263021929717264 14.849084423410277 31.85129816164046 0 1 0
1949 279 3 -0.247 3.8869775611339943 4.019181953676955 28.697263400760654 1 1 1
1947 279 1 -0.556 2.281259273194441 3.8895956516046866 26.601293015874244 1 1 1
714 102 7 0.16 6.620811233910802 14.304437546123733 31.544364510508565 1 -2 -2
4420 632 3 -0.247 6.5359561380311915 15.699823493599652 23.998105759199458 1 1 0
4841 692 4 0.397 2.2948185357815 16.17293748235619 27.601982275538408 1 -3 0
475 68 6 0.09 2.689934744372722 15.181777346807323 31.237280651398127 0 1 0
710 102 3 -0.247 7.213200117190125 13.893955385589829 32.720121264992414 1 -2 -2
4422 632 5 0.09 9.008735920708114 15.934602128491164 24.371870258741296 1 1 0
2489 356 4 0.397 4.342777838360551 3.5403189931951333 23.476827553589413 0 1 0
1278 183 4 0.397 11.519142241475498 15.324450700429615 26.15786146450813 0 1 1
3433 491 3 -0.247 7.851806753990509 9.564281282885112 22.879616506796477 1 -1 0
3201 458 2 0.066 2.607930599567756 15.058965686141187 37.09474627776699 0 -1 0
3788 542 1 -0.556 4.440537449537782 5.036848152521742 38.79726570319954 2 0 -3
1312 188 3 -0.247 7.698228141645151 6.281693370630801 40.673788342461464 0 -2 0
1315 188 6 0.09 6.678430866010814 5.050974836427866 42.60398181752417 0 -2 0
1311 188 2 0.066 7.262039921161021 4.8879036860741865 41.63776620675128 0 -2 0
1310 188 1 -0.556 6.617539452878644 3.9292348425755232 40.88837358735965 0 -2 0
1314 188 5 0.09 8.158579098358562 4.425381518930494 42.01177057960706 0 -2 0
4667 667 5 0.09 6.267015565604398 8.410075720558671 35.844949871527945 2 1 -2
1313 188 4 0.397 6.004123263992108 3.5431543183568808 41.510304455275616 0 -2 0
4663 667 1 -0.556 7.034031113913274 9.514051867488615 37.53085476264333 2 1 -2
4666 667 4 0.397 6.237765485757886 9.459484716728134 38.14018275145696 2 1 -2
4664 667 2 0.066 6.39726543378505 9.496051739723708 36.24734575904412 2 1 -2
4668 667 6 0.09 7.016189871338628 10.058255696163208 35.509417572769465 2 1 -2
3667 524 6 0.09 10.953904570846737 9.180335136177472 34.86858012560715 1 1 -2
3320 475 2 0.066 3.5452445229592113 7.142509231286718 41.64607348143875 -2 1 -3
4665 667 3 -0.247 4.87500381527385 10.399772082433461 36.08713605099885 2 1 -2
1235 177 3 -0.247 2.8224644614314824 11.073989454878962 39.318693299267224 1 1 -1
4669 667 7 0.16 5.343831757274913 11.498793580412405 36.669624896261936 2 1 -2
2756 394 5 0.09 10.015585832640223 4.457247473696782 37.642804329788646 -1 1 0
485 70 2 0.066 9.501384957098225 3.681042580700958 34.338623369026024 -4 3 0
3322 475 4 0.397 4.366732428114352 5.684732666262583 40.67896818142262 -2 1 -3
489 70 6 0.09 10.528140171862647 3.7140757647433666 34.77320310297135 -4 3 0
3319 475 1 -0.556 4.198254549379146 5.878795521887424 41.64476729494709 -2 1 -3
1502 215 4 0.397 11.79261794518005 11.636336523530773 42.93970929430877 0 1 0
3323 475 5 0.09 4.282458432690795 7.961202925228237 41.44129687833667 -2 1 -3
3203 458 4 0.397 3.6655382080608794 15.236604844029081 38.72408235642111 0 -1 0
2754 394 3 -0.247 11.988215993868515 4.654473110221831 39.00282076939605 -1 1 0
3794 542 7 0.16 6.382481393345734 4.612538078484603 36.19142689544091 2 0 -3
187 27 5 0.09 3.822224083522575 6.698060816274486 34.41890511058347 0 1 1
779 112 2 0.066 9.91455224421211 12.075312558028797 37.82830056652949 0 0 2
3663 524 2 0.066 10.272919661263153 8.45520034030518 34.43817847374102 1 1 -2
3668 524 7 0.16 9.557069445427267 8.104203986298373 36.73588804496028 1 1 -2
4723 675 5 0.09 11.993435116393135 14.490383598512715 41.851954086274816 -1 2 1
3664 524 3 -0.247 9.627193401010672 7.289257080805368 35.72173320500356 1 1 -2
1196 171 6 0.09 11.723373460903355 14.39373149722799 37.103540193387815 -1 -1 0
3790 542 3 -0.247 6.090700037049729 5.658731194438682 36.9573867024358 2 0 -3
4220 603 6 0.09 10.04267574712932 7.538034747357318 41.75786590871418 0 0 -2
4218 603 4 0.397 11.719892631790422 6.029441698226567 41.38060111129822 0 0 -2
3324 475 6 0.09 3.185725838527791 7.28096625775346 42.661064926963675 -2 1 -3
3793 542 6 0.09 4.120525037001081 4.248647604911915 36.97069936293845 2 0 -3
3325 475 7 0.16 2.7833925475448886 7.158961154656429 39.376469446579634 -2 1 -3
3791 542 4 0.397 5.132343719515374 4.360208484682268 38.91486644811526 2 0 -3
479 69 3 -0.247 10.06297733646019 11.951716275882541 33.38814919627426 -1 0 -2
188 27 6 0.09 5.282154851214655 5.636253871525572 34.24967251692797 0 1 1
1316 188 7 0.16 7.44255876240499 5.572145265290391 39.551310188692725 0 -2 0
4217 603 3 -0.247 11.624545191149327 8.018691701703215 39.9645846311372 0 0 -2
2753 394 2 0.066 10.711190297476259 3.727626188406173 38.13277143067711 -1 1 0
4971 711 1 -0.556 2.4048883514624526 15.939008566544667 40.59021481720444 1 2 0
1614 231 4 0.397 4.840212477942433 13.420751398174888 37.88296187960037 1 -4 2
1260 180 7 0.16 3.793497510966721 11.552907416676137 42.480461588612755 -1 1 -1
1616 231 6 0.09 7.311569487319914 12.812012883571386 39.00007646901702 1 -4 2
3792 542 5 0.09 3.7038817062901614 5.910230112679486 36.95550827120228 2 0 -3
3789 542 2 0.066 4.425813506154024 5.214935554761205 37.40902142147145 2 0 -3
183 27 1 -0.556 5.516276910180652 7.548849532690874 33.40452153346962 0 1 1
3662 524 1 -0.556 11.005594785553326 7.838696756478618 33.365154005231005 1 1 -2
784 112 7 0.16 12.13324678240016 11.225523907085293 38.05091364696075 0 0 2
1233 177 1 -0.556 2.419266849216961 12.5776137859545 41.32201849721939 1 1 -1
4722 675 4 0.397 11.297380001589111 15.336917408246197 39.278053212949686 -1 2 1