LAMMPS data file via write_data, version 29 Aug 2024, timestep = 1000000, units = real

5831 atoms
17 atom types
5831 bonds
17 bond types
10633 angles
31 angle types
18865 dihedrals
55 dihedral types

2.9774575692473704 42.02254243074784 xlo xhi
2.9774575692473704 42.02254243074784 ylo yhi
2.9774575692473704 42.02254243074784 zlo zhi

Masses

1 12.011
2 12.011
3 12.011
4 12.011
5 12.011
6 12.011
7 15.999
8 1.008
9 1.008
10 1.008
11 1.008
12 1.008
13 1.008
14 1.008
15 1.008
16 1.008
17 1.008

Pair Coeffs # lj/charmmfsw/coul/long

1 0.055999 3.58141 0.01 3.38542
2 0.055999 3.58141 0.01 3.38542
3 0.055999 3.58141 0.01 3.38542
4 0.068 3.72396 0.068 3.72396
5 0.068 3.72396 0.068 3.72396
6 0.055999 3.58141 0.01 3.38542
7 0.192101 3.14487 0.192101 3.14487
8 0.035 2.38761 0.035 2.38761
9 0.035 2.38761 0.035 2.38761
10 0.035 2.38761 0.035 2.38761
11 0.035 2.38761 0.035 2.38761
12 0.035 2.38761 0.035 2.38761
13 0.035 2.38761 0.035 2.38761
14 0.030999 2.22725 0.030999 2.22725
15 0.035 2.38761 0.035 2.38761
16 0.035 2.38761 0.035 2.38761
17 0.045999 0.400014 0.045999 0.400014

Bond Coeffs # harmonic

1 222.5 1.53
2 222.5 1.53
3 344 1.5092
4 440 1.318
5 222.5 1.53
6 385 1.36
7 309 1.111
8 309 1.111
9 309 1.111
10 309 1.111
11 309 1.111
12 309 1.111
13 360.5 1.1
14 309 1.111
15 309 1.111
16 545 0.96
17 365 1.502

Angle Coeffs # charmm

1 58.35 113.6 11.16 2.561
2 32 112.2 0 0
3 48 123.5 0 0
4 58.35 113.6 11.16 2.561
5 55 110.5 0 0
6 26.5 110.1 22.53 2.179
7 26.5 110.1 22.53 2.179
8 26.5 110.1 22.53 2.179
9 26.5 110.1 22.53 2.179
10 26.5 110.1 22.53 2.179
11 26.5 110.1 22.53 2.179
12 52 119.5 0 0
13 26.5 110.1 22.53 2.179
14 26.5 110.1 22.53 2.179
15 65.63 105.72 0 0
16 45 111.5 0 0
17 56 124.5 0 0
18 40 127.5 0 0
19 40 116 0 0
20 26.5 110.1 22.53 2.179
21 35.5 109 5.4 1.802
22 26.5 110.1 22.53 2.179
23 35.5 109 5.4 1.802
24 45 111.5 0 0
25 35.5 109 5.4 1.802
26 45 111.5 0 0
27 45 111.5 0 0
28 32 112.2 0 0
29 35.5 109 5.4 1.802
30 26.5 110.1 22.53 2.179
31 26.5 110.1 22.53 2.179

Dihedral Coeffs # charmmfsw

1 0.14 1 180 1
2 0.6 1 180 1
3 0.0645 2 0 1
4 2.05 2 180 1
5 0 6 180 1
6 0 6 180 1
7 0.12 3 0 1
8 0.45 1 180 0
9 0 3 0 1
10 0.22 3 0 1
11 0.14 1 180 0
12 0.195 3 0 1
13 0.22 3 0 1
14 0.65 1 180 1
15 0.195 3 0 1
16 0.22 3 0 1
17 0.195 3 0 1
18 0.1 3 0 1
19 0.195 3 0 1
20 0.1 3 0 1
21 0.22 3 0 1
22 0 3 0 1
23 0.3 3 180 1
24 0.3 3 180 1
25 0.22 3 0 1
26 0.195 3 0 1
27 0.195 3 0 1
28 0.195 3 0 1
29 0.195 3 0 1
30 0.22 3 0 1
31 0.22 3 0 1
32 0 6 180 1
33 0.195 3 0 1
34 0.6 1 180 0
35 0.22 3 0 1
36 0.22 3 0 1
37 0.22 3 0 1
38 0.22 3 0 1
39 0.19 3 0 1
40 0.195 3 0 1
41 8 2 180 1
42 3 2 180 1
43 0.19 3 0 1
44 0.22 3 0 1
45 1 2 180 1
46 0.17 2 0 0
47 0.05 3 180 0
48 0.14975 3 180 0
49 0.09458 4 0 0
50 0.11251 5 0 0
51 8.5 2 180 0
52 0.17 2 0 0
53 0.05 3 180 0
54 3.41 2 180 0
55 0 3 180 0

Atoms # full

4521 266 16 0.09 7.352019519654148 5.140322939284454 6.905786852926553 1 1 2
4520 266 15 0.09 7.664738573015937 6.884225782611709 6.704183029911249 1 1 2
4511 266 6 -0.18 6.898151842871518 6.108093239039781 6.966928641319238 1 1 2
4510 266 5 -0.151 5.733720163004035 6.237645784495632 6.038269989469222 1 1 2
4519 266 14 0.239 5.96827069729174 6.5017396406450825 4.990194271795051 1 1 2
4509 266 4 -0.127 4.514250170014074 5.915802482188238 6.446456656317053 1 1 2
4506 266 1 -0.18 6.543175709723184 6.389956388335934 8.45507524705403 1 1 2
4513 266 8 0.09 7.46180538001688 6.2486303707690265 9.143546055380032 1 1 2
4514 266 9 0.09 6.2606704933308475 7.474680928365681 8.61367662578539 1 1 2
4508 266 3 -0.147 4.125063904028841 5.639475648487354 7.926111990928573 1 1 2
333 20 10 0.09 11.833239377523046 5.586835771909333 4.810764240956874 0 1 0
4517 266 12 0.09 3.5062363529651916 6.537591676541767 8.236522201723574 1 1 2
4507 266 2 -0.18 5.327781022387736 5.538631563472113 8.94601396070015 1 1 2
4512 266 7 -0.352 3.4836530843557885 5.893385709868142 5.599800830048306 1 1 2
5293 312 6 -0.18 12.532897771999169 3.4883252076904308 6.536281272178609 1 1 1
338 20 15 0.09 9.23989413097474 5.532461094623345 5.2371257968311475 0 1 0
5490 323 16 0.09 10.643777837698192 6.236849091583756 8.200597777977237 1 1 1
329 20 6 -0.18 9.194783502834202 5.843753225744057 4.2327405111497844 0 1 0
2676 158 7 -0.352 3.415661075064663 10.822109344442085 3.511836017020817 0 1 1
4834 285 6 -0.18 7.323106512041927 15.811449173925249 11.388248113235077 1 1 -1
4070 240 7 -0.352 10.550804461641686 12.99530446736529 3.7500259878142175 0 1 0
4841 285 13 0.09 3.5273168290350223 15.920272226500492 11.441434806572857 1 1 -1
5623 331 13 0.09 11.72362793218986 6.336081775420198 12.412424074061875 -1 1 -1
5489 323 15 0.09 12.074743708787643 6.586467085181358 9.484369260932503 1 1 1
5479 323 5 -0.151 12.102042211545696 7.6386517378067404 7.527627034893506 1 1 1
5482 323 8 0.09 9.609941232125674 7.579780859140649 9.919565039103432 1 1 1
5485 323 11 0.09 8.93847986238325 8.390146745961358 7.578873840470652 1 1 1
5480 323 6 -0.18 11.354038546844277 6.994071273987904 8.671097472584805 1 1 1
5516 325 8 0.09 7.1673305427802045 9.784898250245725 11.303283717124959 1 1 0
4845 285 17 0.358 3.4829672658478543 14.09455249090575 12.418593576811023 1 1 -1
4516 266 11 0.09 5.6151542294323225 4.516622068889904 9.046564162139887 1 1 2
5621 331 11 0.09 9.924277384591203 5.87306269184043 11.299244591999038 -1 1 -1
5612 331 2 -0.18 9.843514445040107 5.445460518581819 12.285640911851436 -1 1 -1
5475 323 1 -0.18 10.365933781207467 8.07789274320406 9.288148937960425 1 1 1
332 20 9 0.09 10.384102893474196 7.470090419011561 5.082751114133349 0 1 0
5483 323 9 0.09 11.015712413408954 8.733896639125899 9.866287551064335 1 1 1
4843 285 15 0.09 8.418123086592706 15.50312068949924 11.220051287323487 1 1 -1
324 20 1 -0.18 10.322784040500537 6.93917223310611 4.149318970886709 0 1 0
4515 266 10 0.09 5.079156470764175 5.936666822414264 9.925837522727623 1 1 2
5476 323 2 -0.18 9.678387586971382 8.965684316876906 8.231578296971978 1 1 1
4837 285 9 0.09 6.678185982240803 15.708145691649655 9.286453350489483 1 1 -1
5478 323 4 -0.127 11.82363515196708 8.801121980018374 6.87520040836131 1 1 1
5615 331 5 -0.151 11.727574858506532 3.253944072346457 12.083516940971364 -1 1 -1
2682 158 13 0.09 4.88857809723946 8.446947085956591 4.021802201370722 0 1 1
325 20 2 -0.18 11.711553694672453 6.323643160512596 3.968592797786814 0 1 0
1313 78 4 -0.127 3.6718409879863536 6.073488378200208 12.309549707759562 0 2 0
3479 205 11 0.09 5.44952142005908 10.642977748223522 9.40824149167846 1 0 0
5477 323 3 -0.147 10.675777521638418 9.68001550497035 7.286188812619908 1 1 1
4309 254 8 0.09 10.057643691947582 14.164796331587283 12.338507600028661 1 0 0
2276 134 15 0.09 11.329539298270655 10.590237001310207 11.427474118009764 0 1 0
5484 323 10 0.09 9.065753225269845 9.730633068430922 8.722830224567215 1 1 1
4518 266 13 0.09 3.427328052289423 4.723734433451253 8.068193023573954 1 1 2
3471 205 3 -0.147 3.489345882671347 9.512801530991297 9.96403631781445 1 0 0
5302 312 15 0.09 11.763898344757115 4.285406875703241 6.664031478155312 1 1 1
3481 205 13 0.09 4.113945563404321 8.57381110028663 9.683560743763053 1 0 0
5491 323 17 0.358 12.235957239852471 9.974680940106754 5.450193832746957 1 1 1
2277 134 16 0.09 11.858661437143898 9.034462887648363 12.124986148581035 0 1 0
5481 323 7 -0.352 12.615120207074622 9.263663346199877 5.850678724367869 1 1 1
3476 205 8 0.09 4.80540064528531 9.336167895521516 7.443232437472557 1 0 0
1511 89 15 0.09 6.019898140914689 4.733056591033978 3.402409580118084 0 0 1
2267 134 6 -0.18 12.217416695630162 10.057591343595695 11.753153250825397 0 1 0
1512 89 16 0.09 4.33358916464901 4.211710611360115 3.712737191649929 0 0 1
5611 331 1 -0.18 9.298444043729104 3.981958187126776 12.107757231847739 -1 1 -1
337 20 14 0.239 8.819739143134813 3.890988459615309 3.3323216021275255 0 1 0
3480 205 12 0.09 3.59776979211062 9.722101031417402 10.994603050775437 1 0 0
328 20 5 -0.151 9.503117701923415 4.7009727908736245 3.3232361847243115 0 1 0
4067 240 4 -0.127 11.517239290290794 12.149418647118004 3.220784499332463 0 1 0
3684 217 12 0.09 3.6869776280176603 3.139458765497691 6.385165941202934 1 1 1
5618 331 8 0.09 8.378690931472917 3.840504522677694 11.471638113594144 -1 1 -1
4049 239 3 -0.147 11.06766289279245 15.927707367937423 8.631581243941975 0 0 0
4050 239 4 -0.127 11.917274274856364 14.760571339343626 9.002488133052722 0 0 0
4059 239 13 0.09 10.035147617584908 15.765272936311293 8.97582527765731 0 0 0
5616 331 6 -0.18 10.371605292960746 3.1014968257543085 11.410807089973527 -1 1 -1
331 20 8 0.09 10.169428733048402 7.529533126602084 3.209895278813545 0 1 0
4571 269 15 0.09 8.1262153101054 12.567638618420036 4.19686093494458 0 1 1
3470 205 2 -0.18 4.347632942673272 10.56884764041883 9.196908603757516 1 0 0
3477 205 9 0.09 4.894699452056969 11.119266057793045 7.144839005549278 1 0 0
2672 158 3 -0.147 5.411196211106361 9.459171964530135 3.933564866685323 0 1 1
5517 325 9 0.09 8.217798442838088 11.20466046757898 11.73879032364647 1 1 0
4840 285 12 0.09 3.950110968604446 15.05057872590408 10.003433699329584 1 1 -1
4833 285 5 -0.151 6.44881567478086 14.752951607035241 11.989248664185029 1 1 -1
2680 158 11 0.09 7.269838501783143 8.183312595948706 3.764783599189776 0 1 1
4564 269 8 0.09 9.066816210792233 12.638724368493323 6.664927996079102 0 1 1
4063 239 17 0.358 10.559559617772015 13.888880183839929 8.388486362324553 0 0 0
2673 158 4 -0.127 4.617507667630134 10.394823881403397 3.0198993045972444 0 1 1
4558 269 2 -0.18 7.24345031406353 13.06930612116792 7.5329776607217935 0 1 1
4573 269 17 0.358 3.6613615999877793 13.847370816869079 5.087427189826555 0 1 1
5486 323 12 0.09 11.073024701308928 10.56762106825062 7.841898816633575 1 1 1
4568 269 12 0.09 6.005944872858306 14.711265286714905 7.549205781878989 0 1 1
4569 269 13 0.09 5.148493348411573 13.282741580661765 8.01785893450952 0 1 1
2671 158 2 -0.18 6.779019082243733 9.074220888222104 3.3917896683668842 0 1 1
339 20 16 0.09 8.348204243262455 6.379742934726869 3.894898568416968 0 1 0
3469 205 1 -0.18 4.275575802743081 10.312275562170353 7.677822427436809 1 0 0
5524 325 16 0.09 5.395961155306075 10.354713643785061 12.503315949959022 1 1 0
5626 331 16 0.09 10.30109219587835 3.4847616976161477 10.307611342713937 -1 1 -1
4832 285 4 -0.127 5.153376714961326 14.642200607671578 11.835578342321856 1 1 -1
5514 325 6 -0.18 6.213926265602783 11.091089987607932 12.685156549505258 1 1 0
2681 158 12 0.09 5.645490026200514 9.9054557689712 4.94390036082781 0 1 1
2679 158 10 0.09 7.530742613849763 9.882738598976132 3.483100262141202 0 1 1
4565 269 9 0.09 8.495763346706095 14.150844892103068 5.948638170248975 0 1 1
2686 158 17 0.358 3.2010935691250513 10.25072381311547 4.328683948446803 0 1 1
3478 205 10 0.09 3.991258764133483 11.567944512705509 9.470978155808865 1 0 0
4835 285 7 -0.352 4.36879028799916 13.85709470477893 12.626937108062696 1 1 -1
4557 269 1 -0.18 8.162737574209523 13.167387166875736 6.30866672588758 0 1 1
4570 269 14 0.239 5.772755878719519 12.920886689817648 3.8489214572403623 0 1 1
4080 240 17 0.358 10.930615232155937 13.910265279689312 3.813432308000111 0 1 0
4572 269 16 0.09 7.336877697805836 11.42112892995515 5.4167914977012925 0 1 1
4831 285 3 -0.147 4.380638917108945 15.56078424851181 10.903390804779786 1 1 -1
4053 239 7 -0.352 11.41501109515509 13.609045133576656 8.580133811266094 0 0 0
4563 269 7 -0.352 4.06518063658134 13.932500930619371 5.940847227898021 0 1 1
5487 323 13 0.09 10.183274166607521 10.151634916689865 6.446061628993606 1 1 1
4567 269 11 0.09 7.062922496747179 12.024124209939007 7.6423284383930445 0 1 1
4561 269 5 -0.151 6.164433126679872 13.03398288685338 4.8947167533043805 0 1 1
5509 325 1 -0.18 7.4735804848316425 10.419180687937814 12.108470155903936 1 1 0
4559 269 3 -0.147 5.884096211909751 13.702019521116853 7.298860927358345 0 1 1
4562 269 6 -0.18 7.488741630161831 12.470849767333009 5.108154394902682 0 1 1
4560 269 4 -0.127 5.4053878626898175 13.548480391956947 5.853384091766859 0 1 1
4566 269 10 0.09 7.620175340225723 13.540060681748193 8.47679580722971 0 1 1
5523 325 15 0.09 6.028742041345042 11.91808775355604 11.967802790260608 1 1 0
4317 254 16 0.09 12.613932018242378 14.116050809248183 12.546335038428406 1 0 0
334 20 11 0.09 12.576697306756394 7.06861324327404 3.9337820430487946 0 1 0
1322 78 13 0.09 4.103237124501131 3.957185416624541 11.754752832927473 0 2 0
1312 78 3 -0.147 3.4156289742237718 4.57772409595981 12.42437610564733 0 2 0
5296 312 9 0.09 12.408205498370387 3.0631075364856684 8.703142254519342 1 1 1
1316 78 7 -0.352 3.0229239379583475 6.747825131680679 11.337212116782938 0 2 0
4842 285 14 0.239 6.988431958193642 14.121233921351262 12.70043748554795 1 1 -1
4077 240 14 0.239 10.343689606626754 10.555572285773925 2.9950740133994307 0 1 0
1502 89 6 -0.18 5.164541555133355 4.216297885834941 3.022222851480521 0 0 1
1906 113 2 -0.18 7.215130681705521 7.6940917796728465 18.149656356053427 0 0 0
1905 113 1 -0.18 5.993012774342593 6.80283406684838 18.149188959738765 0 0 0
1907 113 3 -0.147 6.990975133217935 8.903264663164737 19.078522029400073 0 0 0
1908 113 4 -0.127 6.278601352791556 8.49369664750746 20.40346811787456 0 0 0
1916 113 12 0.09 6.509458692746141 9.73099318793301 18.393413498070984 0 0 0
1913 113 9 0.09 5.167322046189657 7.370747241675977 17.6348610613449 0 0 0
5622 331 12 0.09 11.068286551155504 5.783169525353646 13.930632434464876 -1 1 -1
1914 113 10 0.09 7.306979587980739 8.088930478167612 17.05069861097413 0 0 0
1915 113 11 0.09 8.039652734036068 7.147788364946101 18.617290641380237 0 0 0
632 38 3 -0.147 9.720576218538442 3.3064254395625956 21.437135520501492 0 2 0
634 38 5 -0.151 10.289283843084167 5.757406153618232 21.6563061504874 0 2 0
5519 325 11 0.09 7.364021885879251 8.800778388510576 13.444222648366008 1 1 0
1917 113 13 0.09 7.961493999421102 9.371921612384973 19.26036711782049 0 0 0
1911 113 7 -0.352 6.344720285475347 9.484521454621191 21.312948086278446 0 0 0
1315 78 6 -0.18 5.276799125696316 6.127206372071638 14.26330122075008 0 2 0
1921 113 17 0.358 6.931043052612383 10.167406468149366 20.919667492066633 0 0 0
2816 166 11 0.09 10.17682747827665 8.38735715181668 17.884408546681126 0 -1 1
4312 254 11 0.09 8.619775358534891 13.950622823875035 14.359655506705579 1 0 0
3868 228 9 0.09 9.01536780229085 3.8538375552914723 18.532788216915613 0 0 1
4129 243 15 0.09 4.146333237844482 11.971565182575976 18.590022255987016 0 0 1
2807 166 2 -0.18 10.839822143391658 7.502152084511745 17.772745844303685 0 -1 1
643 38 14 0.239 10.713385217538574 6.597923007374852 21.025260934568788 0 2 0
646 38 17 0.358 11.034323557870705 3.378091708911481 19.818365901240583 0 2 0
1325 78 16 0.09 6.2531149132028006 6.677758118272563 14.46401516368757 0 2 0
177 11 7 -0.352 11.071561327441728 9.994473381291293 20.7811374331326 1 0 0
4304 254 3 -0.147 9.599275464872456 15.912847878631903 14.402526309678219 1 0 0
3869 228 10 0.09 9.160779007115904 4.041959329908958 16.1338635130339 0 0 1
636 38 7 -0.352 11.253712378477662 4.32875611742328 20.030981381714465 0 2 0
1323 78 14 0.239 4.5034313840424645 7.826232318680982 13.047235031824494 0 2 0
1912 113 8 0.09 6.224519694558287 5.907221118886543 17.54036764314359 0 0 0
3867 228 8 0.09 7.593027530847578 3.1793683348632853 17.650839180223464 0 0 1
1919 113 15 0.09 4.559005157783663 5.974808799724167 19.45147286008103 0 0 0
1909 113 5 -0.151 5.643577171740192 7.342590028651745 20.666607273131568 0 0 0
5518 325 10 0.09 9.067052246708403 9.099921069376522 12.76387893194664 1 1 0
1324 78 15 0.09 4.839362542870762 6.352204213533538 15.256049841716235 0 2 0
5511 325 3 -0.147 8.381924005661741 10.411182482552853 14.504804097774018 1 1 0
633 38 4 -0.127 10.578272926121041 4.5337024346954315 21.144189352043103 0 2 0
1918 113 14 0.239 5.329428662038438 7.14430055132123 21.690436648015258 0 0 0
1920 113 16 0.09 6.348034560830101 5.452008053746847 19.836998947917927 0 0 0
4334 255 16 0.09 6.624686103637824 15.639815779261395 18.319625888734194 2 0 0
5521 325 13 0.09 8.78187102453775 9.868966793044038 15.393917039846189 1 1 0
1314 78 5 -0.151 4.445150839880945 6.752441571496199 13.161436479644992 0 2 0
1910 113 6 -0.18 5.611622679276328 6.335855998812306 19.520500419759603 0 0 0
5453 321 13 0.09 5.114141600074269 12.095635049429657 21.650174012922548 1 2 0
2818 166 13 0.09 11.915058441955964 7.97059530615985 19.57729351965026 0 -1 1
1319 78 10 0.09 3.2906768356992973 4.287335181219504 14.593300727260047 0 2 0
5613 331 3 -0.147 11.23312611143418 5.516817841574461 12.916700447524462 -1 1 -1
5520 325 12 0.09 9.222332545243518 11.162733069036928 14.218976341604597 1 1 0
3862 228 3 -0.147 10.96240739567839 3.0169246078628054 16.742174226218477 0 0 1
5525 325 17 0.358 7.823197225107251 10.808751893501675 16.6166165233602 1 1 0
5515 325 7 -0.352 7.077679186721225 11.301585852830168 16.258289479587162 1 1 0
4331 255 13 0.09 3.93334261253937 14.970416627189975 14.993374458481453 2 0 0
5452 321 12 0.09 4.241891859638224 13.452252112115247 20.719353498753055 1 2 0
183 11 13 0.09 8.77642037197559 11.140570374559069 21.181842453674182 1 0 0
5512 325 4 -0.127 7.1705281130231775 11.18510334410386 14.922173921766936 1 1 0
187 11 17 0.358 10.63915213871707 10.703667242590596 20.316591982622526 1 0 0
4478 264 7 -0.352 10.162292215003644 10.984704308917719 17.541004644752366 0 0 0
4488 264 17 0.358 10.742071617922146 10.485147931820933 16.89634647848041 0 0 0
4302 254 1 -0.18 10.507717584957298 13.824293205188326 13.225261349530184 1 0 0
1311 78 2 -0.18 3.9757275917177655 4.015448965490501 13.747962359971861 0 2 0
4310 254 9 0.09 10.499901624070036 12.715517446799106 13.151270450604285 1 0 0
173 11 3 -0.147 9.458437074101152 11.091195739361092 22.097538756204337 1 0 0
2806 166 1 -0.18 11.099257496085853 7.22367119538254 16.346406655741397 0 -1 1
3871 228 12 0.09 11.310774938434117 3.8505991268377744 17.325169272910518 0 0 1
4479 264 8 0.09 12.447172052963625 15.296112077749637 17.458060020613456 0 0 0
4316 254 15 0.09 12.446268988169223 13.7961161633766 14.237260427719702 1 0 0
5510 325 2 -0.18 8.172623682351528 9.574406621314868 13.203269968910234 1 1 0
2815 166 10 0.09 10.224708146050329 6.669895245015327 18.192695419112376 0 -1 1
5445 321 5 -0.151 7.4596951274515 14.18839785883408 21.22614723820062 1 2 0
5450 321 10 0.09 4.40313334315044 15.040587532433408 22.290540454021574 1 2 0
4307 254 6 -0.18 11.957314403924254 14.34208697942541 13.385427489271077 1 0 0
2820 166 15 0.09 12.404815955052273 7.675839116040125 14.714114155882328 0 -1 1
4320 255 2 -0.18 3.3845449945003074 15.616277840158492 17.03560272025173 2 0 0
4311 254 10 0.09 10.124426308673087 14.034148229201442 15.28443276253739 1 0 0
4477 264 6 -0.18 10.669268070850565 14.445718478458744 18.70843767037313 0 0 0
174 11 4 -0.127 10.51516429008199 9.991931323485119 21.994487714363057 1 0 0
641 38 12 0.09 8.949843772214415 3.0761453671969745 20.614304743831404 0 2 0
4476 264 5 -0.151 10.097601444207662 13.166769774639517 18.440467088982544 0 0 0
1318 78 9 0.09 5.510506610529397 4.218628575615333 15.058181679935677 0 2 0
4319 255 1 -0.18 4.523484243398725 15.125633027983634 17.944088270548047 2 0 0
4474 264 3 -0.147 12.15910540246158 12.334416140047917 17.350103909424213 0 0 0
4303 254 2 -0.18 9.610732488108072 14.351736483618364 14.40681579958175 1 0 0
4475 264 4 -0.127 10.686892344632561 12.258452275191905 17.74860779101727 0 0 0
4485 264 14 0.239 9.064409321373631 12.929450143133957 18.84738532214477 0 0 0
4122 243 8 0.09 4.206050689846279 9.405225309137062 18.0052664873487 0 0 1
2814 166 9 0.09 11.373500956329742 6.210422492065756 16.28096148607246 0 -1 1
4487 264 16 0.09 10.145007777060751 15.328620276516894 18.195812262924942 0 0 0
182 11 12 0.09 9.901044480290608 12.069802022595587 22.170981628489415 1 0 0
5457 321 17 0.358 5.640759043824904 12.288533353819053 19.517518378809577 1 2 0
4484 264 13 0.09 12.298130077894506 12.56967621644554 16.23726935039194 0 0 0
4326 255 8 0.09 4.813880458796915 14.276068212858384 17.297837200650577 2 0 0
4472 264 1 -0.18 12.226640774592488 14.699282062562547 18.443388677354307 0 0 0
5279 311 9 0.09 5.741456663919509 3.1654503327865466 20.327938506667916 0 0 -1
5454 321 14 0.239 8.282797266794361 14.40050155413567 20.560312651029175 1 2 0
3860 228 1 -0.18 8.649657149465472 3.0090144188669936 17.822250565826863 0 0 1
4327 255 9 0.09 4.391912079880118 14.796499632932026 18.987549861786295 2 0 0
3872 228 13 0.09 11.578785342284698 3.0931153048196767 15.82973424300444 0 0 1
5444 321 4 -0.127 6.437794718932771 13.509833464639861 20.660757921120926 1 2 0
4486 264 15 0.09 10.617994699631698 14.599493545627158 19.762694848830506 0 0 0
5447 321 7 -0.352 6.450486549845621 12.816143996324309 19.465290671669816 1 2 0
638 38 9 0.09 7.584570521356072 4.7857107235322545 21.571501513209828 0 2 0
4115 243 1 -0.18 3.368312168041797 9.94004911281894 18.484409436824976 0 0 1
5522 325 14 0.239 5.242397079316668 11.941601794603656 14.613059277051764 1 1 0
2275 134 14 0.239 12.335744457561091 11.32831243689678 13.604126085295416 0 1 0
4123 243 9 0.09 3.541253168790706 10.01450466440816 19.629361056336947 0 0 1
1310 78 1 -0.18 5.347848375270703 4.6043923316542354 14.037543532791286 0 2 0
1317 78 8 0.09 6.151474792322274 4.263411977590197 13.336993694080062 0 2 0
5443 321 3 -0.147 5.133825697851698 13.239230769360153 21.345820069744136 1 2 0
4321 255 3 -0.147 3.8090984332025997 15.947822716389664 15.58745192933226 2 0 0
3861 228 2 -0.18 9.476096767576653 3.082007256800367 16.549271322856633 0 0 1
2821 166 16 0.09 11.516305273968474 9.145611144313829 15.321639798250576 0 -1 1
2813 166 8 0.09 10.132865532718089 7.058680669240197 15.8098436700781 0 -1 1
2811 166 6 -0.18 12.053543714562375 8.148593726475767 15.594335767855368 0 -1 1
4306 254 5 -0.151 11.992117267613487 15.79052182813121 13.632495412794613 1 0 0
5513 325 5 -0.151 6.214252102292937 11.57104570546168 14.11655183765484 1 1 0
5614 331 4 -0.127 12.087464635011557 4.283243365727447 12.81617064830339 -1 1 -1
2808 166 3 -0.147 12.167982154430138 7.62233711655884 18.589252522509412 0 -1 1
5619 331 9 0.09 9.120667130459125 3.5206008053416262 13.126273719061542 -1 1 -1
4130 243 16 0.09 3.584935513108116 11.502866183141006 16.93342419581816 0 0 1
4120 243 6 -0.18 3.3441861474982826 11.404410493424916 18.039183050103517 0 0 1
2817 166 12 0.09 12.553136629519901 6.623214199054281 18.76815474221835 0 -1 1
1864 110 11 0.09 3.355178052034266 7.308913684817195 22.4783658906314 1 1 1
4480 264 9 0.09 12.604426525277434 15.264620924770533 19.3570600118851 0 0 0
4483 264 12 0.09 12.549180168925451 11.297929790068071 17.58232811278485 0 0 0
644 38 15 0.09 8.530679556282642 6.84673205491839 22.330849741704974 0 2 0
5620 331 10 0.09 8.993559290422464 5.967117784191474 12.751731145464882 -1 1 -1
2960 175 2 -0.18 7.382510220340618 6.400276728649692 27.373870079762987 0 0 1
2961 175 3 -0.147 8.58106383636952 5.616596471744941 26.68773478014503 0 0 1
2962 175 4 -0.127 9.935561869612155 6.2832720684586505 26.95761668829239 0 0 1
2970 175 12 0.09 8.400222235121738 5.489150407811719 25.588813296608148 0 0 1
2971 175 13 0.09 8.516508664655257 4.607780048824773 27.22473118150489 0 0 1
2969 175 11 0.09 7.379832884704867 6.28173366132958 28.491312296048616 0 0 1
2968 175 10 0.09 6.455760364237625 5.927172489686607 26.99677032662942 0 0 1
563 34 2 -0.18 3.6214274169626255 4.53444506783774 27.145976603887405 -1 1 1
4362 257 10 0.09 8.91138460606659 12.84094564875741 31.02022785378026 1 0 0
2975 175 17 0.358 10.739035149285215 4.919152991563093 25.97527714779917 0 0 1
2965 175 7 -0.352 10.996863437914584 5.769742540178631 26.286128172978074 0 0 1
572 34 11 0.09 4.458066892182929 5.138028807696024 27.60725179105336 -1 1 1
4353 257 1 -0.18 10.854785089482842 12.481735303226511 31.779829657818016 1 0 0
2963 175 5 -0.151 9.913946767202251 7.4375215743870005 27.57604694280781 0 0 1
4270 252 3 -0.147 9.365140180360985 4.351997499171126 32.0980444874998 0 2 0
3428 202 11 0.09 12.055390357931175 6.290447356191473 31.340786309576824 1 0 1
181 11 11 0.09 7.956275560288196 9.922469978498189 23.210891645915687 1 0 0
2762 163 8 0.09 3.17098764965524 11.196421967867673 29.787289969353587 -1 0 0
184 11 14 0.239 11.682823885306002 8.428622237024443 22.92061723668327 1 0 0
2959 175 1 -0.18 7.470514594563966 7.94014636232229 27.27576780641234 0 0 1
4275 252 8 0.09 8.214874663236454 3.3029671695179066 29.079779626170787 0 2 0
645 38 16 0.09 9.379242882743224 6.066268372058886 23.61226184185843 0 2 0
4278 252 11 0.09 10.17168912381763 4.016416925616329 30.215369133267437 0 2 0
3425 202 8 0.09 12.258299087546181 7.172760734765794 29.221495189708296 1 0 1
5455 321 15 0.09 7.462039456923977 15.795117528825614 22.75953193760369 1 2 0
3159 186 14 0.239 5.374669629826389 3.1882637841124755 31.978167278759013 1 0 0
3926 231 16 0.09 3.874617111947307 5.578154125727355 29.977135449806852 0 0 -1
2972 175 14 0.239 10.8702256315869 8.034953142432569 27.552525890769353 0 0 1
2974 175 16 0.09 8.673571030283302 8.245306088768178 29.10807733704413 0 0 1
4277 252 10 0.09 8.959272964773143 5.333336977896039 30.046165558858963 0 2 0
637 38 8 0.09 7.260254368891584 4.8234898278119145 23.373353903537563 0 2 0
4269 252 2 -0.18 9.169169886900686 4.35342610736255 30.59224560567543 0 2 0
3925 231 15 0.09 4.6940491134684725 7.24031253085868 29.693257693619785 0 0 -1
4369 257 17 0.358 8.701161885730077 8.336842914946864 31.67980935239675 1 0 0
635 38 6 -0.18 9.072860020705425 5.963907210661247 22.60537152840265 0 2 0
1862 110 9 0.09 4.415508255728967 7.229713406213743 24.53532632215353 1 1 1
2967 175 9 0.09 7.458095299055176 8.340199296110388 26.235959770462003 0 0 1
2966 175 8 0.09 6.811637028746306 8.491979795528167 27.97897811046209 0 0 1
2766 163 12 0.09 3.1022470128665893 14.979077348731119 29.898928636583015 -1 0 0
640 38 11 0.09 9.511052654153087 3.4527003115518005 23.6387917573417 0 2 0
2964 175 6 -0.18 8.79248544696511 8.312601223523156 28.03368097835781 0 0 1
1207 71 17 0.358 4.983801057785844 15.597365070554478 27.93620621351149 2 0 -1
4365 257 13 0.09 7.9319536735620595 10.547593351728839 31.492839031159015 1 0 0
1199 71 9 0.09 10.16154179008603 14.757939789277797 26.07592452450953 2 0 -1
1859 110 6 -0.18 2.99690392735373 8.602653533034673 25.626522890430433 1 1 1
3916 231 6 -0.18 3.949562590121327 6.634688685905735 30.299685826818465 0 0 -1
3919 231 9 0.09 5.5938368820175 5.985378954595088 31.642013171427127 0 0 -1
186 11 16 0.09 9.669791798975526 8.447315218380579 24.563856728988178 1 0 0
176 11 6 -0.18 10.26366738990317 9.323282511525658 24.38378201451317 1 0 0
1854 110 1 -0.18 3.7944204236305152 8.108533522105247 24.389343020787962 1 1 1
3427 202 10 0.09 12.070858957235165 4.909340135171622 30.26846735913746 1 0 1
574 34 13 0.09 3.35386975196677 3.550034439909779 29.220635624270994 -1 1 1
5442 321 2 -0.18 4.848802630761184 14.072115284319558 22.563467493499875 1 2 0
4359 257 7 -0.352 9.441219869705476 8.442839637344807 32.195660790806826 1 0 0
3920 231 10 0.09 5.33330102223635 8.484640684942843 31.849322551472685 0 0 -1
4356 257 4 -0.127 9.935692878413349 9.713006175513005 32.078966493541415 1 0 0
631 38 2 -0.18 8.872919545727214 3.466979158876012 22.770607524318535 0 2 0
1861 110 8 0.09 4.4565006706644485 8.897510720412104 23.903415637732465 1 1 1
1192 71 2 -0.18 8.575064708213414 14.477825994347844 27.607601316595296 2 0 -1
1193 71 3 -0.147 7.030771761958069 14.69095405568294 27.778144331873353 2 0 -1
1750 103 16 0.09 7.609103550521702 15.373925512489595 31.138949225944742 0 -1 0
3198 189 2 -0.18 11.745645745439838 14.06417659388938 23.478494854889764 0 0 1
3911 231 1 -0.18 4.561766654897195 6.4669267108595765 31.680642867223142 0 0 -1
4276 252 9 0.09 7.210139378675217 3.5137524324078484 30.54451875450164 0 2 0
4268 252 1 -0.18 8.23994660673324 3.220905011818691 30.190192360381815 0 2 0
178 11 8 0.09 8.832963907063991 10.44780187269529 25.497934003583833 1 0 0
2130 126 5 -0.151 12.470543641984127 11.197229889881639 29.100346566645992 2 1 0
570 34 9 0.09 3.1956792440482613 3.65955071347435 25.22222172669994 -1 1 1
2760 163 6 -0.18 4.561199863788726 11.839124479082043 28.311761457902335 -1 0 0
569 34 8 0.09 4.4821915371577346 4.937473834343217 25.178661372637585 -1 1 1
1200 71 10 0.09 9.047702508128236 14.97734950165212 28.430139786409608 2 0 -1
5449 321 9 0.09 5.961138719275233 15.00443101609325 24.244718693349867 1 2 0
562 34 1 -0.18 4.127406411643626 4.080474121292593 25.7852124757559 -1 1 1
175 11 5 -0.151 10.846350558625673 9.182763138083404 23.00555778808549 1 0 0
4354 257 2 -0.18 9.347786437744496 12.202257259495287 31.7550348545887 1 0 0
2973 175 15 0.09 8.975562905316806 9.398037006059841 27.934434947676746 0 0 1
4361 257 9 0.09 11.255117832462068 12.430791946353322 30.760759953048638 1 0 0
2126 126 1 -0.18 12.12621829099269 11.958713720496814 26.810103646968575 2 1 0
5441 321 1 -0.18 6.110242596765151 14.26533769451995 23.422849337545507 1 2 0
2139 126 14 0.239 12.213020606210732 10.412620681352413 29.867443695589635 2 1 0
2141 126 16 0.09 11.202770788200322 10.236375762475605 27.6359913499144 2 1 0
5448 321 8 0.09 6.305052631059074 13.253731169004968 23.74453973616284 1 2 0
5446 321 6 -0.18 7.458864289219649 14.660560598948958 22.673930518610273 1 2 0
2765 163 11 0.09 3.743929718803332 13.204275200775884 31.429250260774698 -1 0 0
2759 163 5 -0.151 3.7634166535119453 12.801090871195937 27.49750757840628 -1 0 0
5456 321 16 0.09 8.155829692730972 14.187664714594002 23.310682727598017 1 2 0
2768 163 14 0.239 3.703360232255279 12.647998648417298 26.439246671530316 -1 0 0
630 38 1 -0.18 8.033547843737505 4.751818420291118 22.571366816907517 0 2 0
1740 103 6 -0.18 8.418503379283154 15.748874208772545 31.826696345377325 0 -1 0
2758 163 4 -0.127 3.1654259003326293 13.80244629195838 28.00099476160969 -1 0 0
4360 257 8 0.09 11.0246782919117 13.593063968437152 32.09773455021835 1 0 0
1202 71 12 0.09 6.887919441605366 14.400275889684353 28.834055381067866 2 0 -1
4355 257 3 -0.147 9.009566407607963 10.74041150845055 31.3856787034654 1 0 0