LAMMPS data file via write_data, version 29 Aug 2024, timestep = 1000000, units = real

5831 atoms
17 atom types
5488 bonds
16 bond types
10290 angles
30 angle types
12348 dihedrals
36 dihedral types

1.1438613760814 41.94613862389665 xlo xhi
1.1438613760814 41.94613862389665 ylo yhi
1.1438613760814 41.94613862389665 zlo zhi

Masses

1 12.011
2 12.011
3 12.011
4 12.011
5 12.011
6 18.998
7 1.008
8 1.008
9 1.008
10 1.008
11 1.008
12 1.008
13 1.008
14 1.008
15 1.008
16 1.008
17 1.008

Pair Coeffs # lj/cut/coul/long

1 0.066 3.5
2 0.066 3.5
3 0.066 3.5
4 0.066 3.5
5 0.066 3.5
6 0.061 2.94
7 0.03 2.5
8 0.03 2.5
9 0.03 2.5
10 0.03 2.5
11 0.03 2.5
12 0.03 2.5
13 0.03 2.5
14 0.03 2.5
15 0.03 2.5
16 0.03 2.5
17 0.03 2.5

Bond Coeffs # harmonic

1 268 1.529
2 268 1.529
3 268 1.529
4 268 1.529
5 367 1.332
6 340 1.09
7 340 1.09
8 340 1.09
9 340 1.09
10 340 1.09
11 340 1.09
12 340 1.09
13 340 1.09
14 340 1.09
15 340 1.09
16 340 1.09

Angle Coeffs # harmonic

1 58.35 112.7
2 58.35 112.7
3 58.35 112.7
4 50 109.5
5 37.5 110.7
6 37.5 110.7
7 37.5 110.7
8 37.5 110.7
9 37.5 110.7
10 37.5 110.7
11 37.5 110.7
12 37.5 110.7
13 37.5 110.7
14 37.5 110.7
15 37.5 110.7
16 37.5 110.7
17 33 107.8
18 33 107.8
19 40 107
20 33 107.8
21 37.5 110.7
22 33 107.8
23 37.5 110.7
24 33 107.8
25 40 107
26 33 107.8
27 37.5 110.7
28 33 107.8
29 37.5 110.7
30 37.5 110.7

Dihedral Coeffs # opls

1 1.3 -0.05 0.2 0
2 1.3 -0.05 0.2 0
3 0.3 0 0.4 0
4 0 0 0.3 0
5 0 0 0.3 0
6 0 0 0.3 0
7 0 0 0.3 0
8 0 0 0.3 0
9 0 0 0.3 0
10 0 0 0.3 0
11 0 0 0.3 0
12 0 0 0.3 0
13 0 0 0.3 0
14 0 0 0.3 0
15 0 0 0.3 0
16 0 0 0.3 0
17 0 0 0.3 0
18 0 0 0.3 0
19 0 0 0.3 0
20 0 0 0.3 0
21 0 0 0.3 0
22 0 0 0.3 0
23 0 0 0.3 0
24 0 0 0.3 0
25 0 0 0.3 0
26 0 0 0.3 0
27 0 0 0.3 0
28 0 0 0.3 0
29 0 0 0.3 0
30 0 0 0.3 0
31 0 0 0.3 0
32 0 0 0.4 0
33 0 0 0.3 0
34 0 0 0.3 0
35 0 0 0.3 0
36 0 0 0.4 0

Atoms # full

1124 67 2 -0.12 6.423064656406419 6.320174245224711 8.118133917364016 0 -1 -1
1132 67 10 0.06 6.100454404195699 6.308373827041601 9.144205343080701 0 -1 -1
4804 283 10 0.06 3.995095437589513 2.650822226150868 9.573349112487977 2 -2 2
4805 283 11 0.06 2.877363656495031 1.8398932884521666 10.64511018330644 2 -2 2
2311 136 16 0.1 1.6189962534578437 12.016307701948152 1.4941421607769456 -1 -1 -1
4939 291 9 0.06 8.244752701264623 10.03430498608923 11.27569144395552 1 1 -2
2188 129 12 0.06 10.204767556645672 4.532876466280027 10.717953325008242 -1 0 0
2854 168 15 0.06 10.220534628374851 3.311205804170394 8.180275967047175 3 -3 2
5076 299 10 0.06 10.549676816979531 8.131113153136418 5.263181896755884 1 1 0
4709 277 17 0.1 7.118360101674862 13.434429918388044 5.6625983195366505 3 -2 2
2843 168 4 -0.12 11.124980442336613 2.858203632819376 7.873416876309241 3 -3 2
4766 281 6 -0.22 7.9905722160109205 2.745325507835391 6.643902554894249 4 -1 0
1393 82 16 0.1 7.0226235504874515 3.9239815586314957 10.515246891827317 1 -1 2
1133 67 11 0.06 6.714131995418952 5.3163751428506005 7.871047361506159 0 -1 -1
1863 110 10 0.06 7.9706898195667915 1.2974782094973532 2.352954099149367 -1 0 -1
5453 321 13 0.06 2.0410814988749344 4.020286135133503 5.886945433816182 0 2 -2
1867 110 14 0.06 5.70796916960149 1.8824598770730057 2.2402388922320116 -1 0 -1
4945 291 15 0.06 3.3974292105233874 9.767010190142484 10.397653441749204 1 1 -2
5444 321 4 -0.12 2.3029915942016137 5.246275848896367 4.197321401092883 0 2 -2
4797 283 3 -0.12 2.0467915315808503 3.5191574490923947 9.502941877111718 2 -2 2
1134 67 12 0.06 4.679718728695647 5.985170798006205 7.010608571713545 0 -1 -1
1135 67 13 0.06 5.735016080454247 7.301393036692199 6.255196810744007 0 -1 -1
4940 291 10 0.06 6.528711912298811 8.568910160652111 10.23159695804819 1 1 -2
5445 321 5 0.02 3.7995089606984047 5.268508496784072 4.181601283126396 0 2 -2
3289 194 8 0.06 8.259043590897543 4.629962225275648 4.454405351445982 -1 -2 0
5456 321 16 0.1 4.216669614656942 4.711917702495674 3.281474240069298 0 2 -2
4796 283 2 -0.12 2.986461196560245 2.3121069992497008 9.711304890183477 2 -2 2
4765 281 5 0.02 7.719216073189336 1.5246608270377449 6.171118086640596 4 -1 0
5446 321 6 -0.22 4.073630073247077 6.529459697840861 4.151319443644049 0 2 -2
5457 321 17 0.1 4.3495734614812 4.877699735274255 5.039605461817104 0 2 -2
2850 168 11 0.06 10.394056291443823 5.054903923636981 6.003364853962548 3 -3 2
5068 299 2 -0.12 10.876801368853576 9.076278193380382 5.566218427455588 1 1 0
2846 168 7 0.06 11.322002075142983 4.787313741617908 3.6454700623348324 3 -3 2
2841 168 2 -0.12 11.071168092830657 4.23386606183131 5.7392085721594 3 -3 2
4775 281 15 0.06 6.157431593424766 2.1283060570028147 4.748613366559676 4 -1 0
4776 281 16 0.1 8.391952872162719 1.2663159172611504 5.388923296022796 4 -1 0
2849 168 10 0.06 10.350190263622485 3.51356031313857 5.459060510758725 3 -3 2
3290 194 9 0.06 7.2231486981691795 4.650806897834844 3.0413439668368865 -1 -2 0
3288 194 7 0.06 6.777527918230332 5.385208626932506 4.432178045345125 -1 -2 0
3282 194 1 -0.18 7.608360086570791 5.295014596180315 3.8301182901573605 -1 -2 0
1127 67 5 0.02 2.9819357922793452 8.052672536785394 7.256181408981192 0 -1 -1
2853 168 14 0.06 10.791722239295733 2.02733094651961 7.27624326074428 3 -3 2
160 10 7 0.06 2.568128971475571 5.985927956593972 1.1700837068405336 -1 -2 1
5443 321 3 -0.12 1.729473403290155 3.9779754179430955 4.793953662117561 0 2 -2
2959 175 1 -0.18 9.600924816317624 10.800195237731868 1.4147632317334422 0 0 2
1857 110 4 -0.12 5.478996757781453 1.3692788656409518 1.28527887151751 -1 0 -1
1130 67 8 0.06 7.907246696349694 8.094126026490084 8.082321577219554 0 -1 -1
4764 281 4 -0.12 6.264588166340785 1.3958877314249063 5.562342386956199 4 -1 0
3285 194 4 -0.12 6.595317424247437 7.031081184645789 1.3247793702225945 -1 -2 0
1947 115 9 0.06 10.788669360200727 13.490873964775664 8.728256656282351 -1 -2 2
4808 283 14 0.06 2.831268285219081 4.843185212904997 10.970596467908976 2 -2 2
3284 194 3 -0.12 7.039821493467234 7.546448955082816 2.647733387584891 -1 -2 0
3283 194 2 -0.12 8.124521977855295 6.633749969931272 3.3199066619544038 -1 -2 0
2970 175 12 0.06 10.080141947924673 13.363592733831007 1.2310783402158063 0 0 2
3291 194 10 0.06 9.013112664173281 6.402910817745145 2.682451599086817 -1 -2 0
1859 110 6 -0.22 3.21145051079195 2.5174217623442248 1.1833738367068583 -1 0 -1
4937 291 7 0.06 7.9472862325539415 11.324378721676009 10.301657986493604 1 1 -2
3292 194 11 0.06 8.610069640508858 7.084000930105432 4.156744231897708 -1 -2 0
3295 194 14 0.06 5.9107815376515855 6.231333594138717 1.4627783568347388 -1 -2 0
4941 291 11 0.06 5.995810208275332 9.903376698589506 9.202203215638097 1 1 -2
1598 94 17 0.1 3.5456993555929786 11.94782659300043 5.589306920051696 -3 1 -3
4807 283 13 0.06 2.2487531444704443 4.067418612707587 8.597288776958674 2 -2 2
1597 94 16 0.1 4.394404631491631 13.368930143334085 5.141945017326231 -3 1 -3
1138 67 16 0.1 2.5495118429719383 7.065084967504245 7.075644909861701 0 -1 -1
2187 129 11 0.06 10.797771985308895 5.9392596870543315 8.732247113339511 -1 0 0
4705 277 13 0.06 4.915511671656432 13.881965695338298 7.258604911221891 3 -2 2
4696 277 4 -0.12 6.817651912062967 13.3647269885308 7.874094534520075 3 -2 2
5074 299 8 0.06 8.88515387950476 9.774763346192758 5.043801294225636 1 1 0
4798 283 4 -0.12 1.857108399188912 4.399231757220276 10.764426861793813 2 -2 2
3293 194 12 0.06 7.396736846720239 8.592480945679508 2.562058612698997 -1 -2 0
2973 175 15 0.06 10.828075418953373 12.216660871979581 3.517562023701518 0 0 2
5452 321 12 0.06 2.274350803177175 3.112878544232829 4.321689773960705 0 2 -2
5455 321 15 0.06 1.912624097474381 5.530003668774947 3.1990024168608886 0 2 -2
1125 67 3 -0.12 5.3281776531629275 6.859665569009262 7.246758457115678 0 -1 -1
1131 67 9 0.06 8.075098837491673 6.7844542244171615 6.834045951196761 0 -1 -1
4706 277 14 0.06 6.65393896055747 12.568514771215183 8.516638278949564 3 -2 2
1586 94 5 0.02 3.6510085551812024 12.667643840027075 4.818418201644674 -3 1 -3
2961 175 3 -0.12 11.025710161602893 12.851574112128453 1.431409490261119 0 0 2
1139 67 17 0.1 2.8376953024288927 8.604081055381545 6.323097857299188 0 -1 -1
5454 321 14 0.06 2.024181598594871 6.050740122006416 4.833137380938028 0 2 -2
1596 94 15 0.06 3.383261415151506 11.204393709668388 3.2369123515511866 -3 1 -3
4708 277 16 0.1 8.097590570042684 12.184075374767476 6.619301206832392 3 -2 2
1591 94 10 0.06 5.787194308091822 11.01126612595376 1.5954303918770392 -3 1 -3
4931 291 1 -0.18 7.91852775497315 10.273762681150677 10.249263666011744 1 1 -2
5073 299 7 0.06 9.146165417705044 9.772327049431526 6.813331230536687 1 1 0
5075 299 9 0.06 9.919559489970663 10.9612579437719 5.781045127176653 1 1 0
1123 67 1 -0.18 7.817232023549358 7.064326064590757 7.850495750614945 0 -1 -1
2189 129 13 0.06 9.465941076342608 6.150564793975866 10.684678721453887 -1 0 0
1587 94 6 -0.22 2.452581063636933 13.175110870489616 4.4822532834923265 -3 1 -3
2967 175 9 0.06 9.5864193725311 10.68525990871835 2.493163211430154 0 0 2
4774 281 14 0.06 5.644357575766002 1.5534958876775322 6.4702778218914245 4 -1 0
1136 67 14 0.06 4.8658094161781715 8.913164303554577 7.728190072033436 0 -1 -1
1126 67 4 -0.12 4.428127878917658 7.980542852826966 7.865744534102394 0 -1 -1
1137 67 15 0.06 4.262368008331329 7.810902546205088 8.956039053412091 0 -1 -1
1129 67 7 0.06 8.600744050615248 6.669645113199117 8.500664997454692 0 -1 -1
4703 277 11 0.06 4.973604417949824 13.978739347023588 9.728071857870644 3 -2 2
4932 291 2 -0.12 6.46323136761269 9.670300290423734 10.129323563397456 1 1 -2
1593 94 12 0.06 4.182291304625281 13.506221657124346 2.0601064434916814 -3 1 -3
4695 277 3 -0.12 5.727550212166289 14.404529943540012 7.754569268972573 3 -2 2
2183 129 7 0.06 10.510062127650011 8.161147831471128 10.05133053730389 -1 0 0
1584 94 3 -0.12 4.719209199229027 12.706940847244367 2.5362288222067435 -3 1 -3
1594 94 13 0.06 5.613079331886736 13.259130420068745 2.982897985629838 -3 1 -3
4698 277 6 -0.22 6.184509062284488 11.89323140184847 6.262124275017366 3 -2 2
3294 194 13 0.06 6.143216493251029 7.637491848321681 3.297304183669438 -1 -2 0
4697 277 5 0.02 7.166098842650591 12.776829711711779 6.513140882996668 3 -2 2
1595 94 14 0.06 4.894944465656253 11.249430274360233 3.9994778392522874 -3 1 -3
1585 94 4 -0.12 4.126665677996615 11.935759425940072 3.6513093671193877 -3 1 -3
1128 67 6 -0.22 2.2479611252795406 8.599976385006258 8.254926031173628 0 -1 -1
4707 277 15 0.06 7.718941165437437 13.839196745702246 8.221445938155357 3 -2 2
1946 115 8 0.06 10.409888299042077 12.926730730683952 10.446579427070228 -1 -2 2
2178 129 2 -0.12 11.260174645450284 6.161512267625175 9.672424275491734 -1 0 0
1948 115 10 0.06 10.582243968396162 11.068599313221016 8.803557922888032 -1 -2 2
4802 283 8 0.06 3.052528285445926 1.7035823386827502 7.672354168932277 2 -2 2
5067 299 1 -0.18 9.61514223194051 9.901449336676569 5.794007289467792 1 1 0
4795 283 1 -0.18 2.7995399387971034 1.2242474705370192 8.650096111505478 2 -2 2
4938 291 8 0.06 8.614279186823948 9.821034885536994 9.484593458111751 1 1 -2
1583 94 2 -0.12 5.0211031941038895 11.787054122687982 1.286822886094927 -3 1 -3
2179 129 3 -0.12 10.401507927400583 5.606698383867223 10.746212674209879 -1 0 0
4942 291 12 0.06 5.314452456764132 11.263719073305257 11.20911399457467 1 1 -2
1939 115 1 -0.18 11.13659606577728 12.888797759853754 9.635441102634493 -1 -2 2
4934 291 4 -0.12 3.9702216548208393 9.564585381565857 11.304663786783594 1 1 -2
4933 291 3 -0.12 5.394766786674597 10.181281586341166 11.236383725649851 1 1 -2
1392 82 15 0.06 5.51692920120066 5.676115484996128 11.25777036411369 1 -1 2
2855 168 16 0.1 11.293042908991696 1.8646807991404397 9.745036070608919 3 -3 2
4944 291 14 0.06 4.001119413015406 8.47015115633825 11.228433132872604 1 1 -2
1312 78 3 -0.12 9.352934996442452 3.7468251295830473 18.237054100813868 1 3 4
1324 78 15 0.06 8.950311040740347 5.82215789956855 18.188231107804718 1 3 4
1311 78 2 -0.12 8.580731605546884 3.602861594289945 16.909505101049604 1 3 4
1321 78 12 0.06 10.242833934860771 3.119544076604911 18.134515028570195 1 3 4
1322 78 13 0.06 8.707065394105395 3.397946312657442 19.12289323739419 1 3 4
1385 82 8 0.06 5.800362654129661 6.783881521951129 15.973062136614889 1 -1 2
1313 78 4 -0.12 9.7560882890255 5.17902127673751 18.46517272327626 1 3 4
1323 78 14 0.06 9.839487195768589 5.453900613068177 19.586507545496612 1 3 4
1390 82 13 0.06 6.425217832879371 4.953303020871291 14.03865326691168 1 -1 2
1320 78 11 0.06 9.274901764991736 3.921563343484667 16.181295078190807 1 3 4
1380 82 3 -0.12 5.567213685797573 5.131798904802929 13.405246506834654 1 -1 2
1378 82 1 -0.18 4.839912618968369 6.68122781708495 15.462578266431716 1 -1 2
1387 82 10 0.06 5.849092862436147 7.185546222156485 13.720560267697541 1 -1 2
1633 97 1 -0.18 3.424189270123799 1.9886110555737422 18.75577830693157 1 0 3
1384 82 7 0.06 4.240768096925752 7.540198306962885 15.657236948207023 1 -1 2
1319 78 10 0.06 7.646796636791829 4.182448175971864 16.878242770204366 1 3 4
1379 82 2 -0.12 5.071969714201911 6.484494574945647 13.93259846585498 1 -1 2
3820 225 12 0.06 8.561285662812205 1.1497673098066854 19.108460701311166 -2 2 -1
1310 78 1 -0.18 8.234780577709117 2.207699612550118 16.465921882070937 1 3 4
4283 252 16 0.1 8.725798562797952 7.314545997510896 15.519629665590072 -3 -3 -1
1386 82 9 0.06 4.341740887082976 5.809487565615064 15.867596917772918 1 -1 2
1638 97 6 -0.22 5.659980051403302 6.961375581125754 19.35998341960221 1 0 3
1391 82 14 0.06 7.037288484525839 5.813900037246346 11.924904823930495 1 -1 2
4577 270 4 -0.12 6.258140140343009 12.525823036295161 14.328668108416421 -4 0 2
1388 82 11 0.06 4.290616056195983 6.973331791438822 13.364404396690578 1 -1 2
4584 270 11 0.06 3.135126921571376 14.162744900831598 14.642077995594828 -4 0 2
1646 97 14 0.06 6.384263680434586 4.053483710604737 19.36374467713705 1 0 3
1644 97 12 0.06 3.349223387113944 4.6343962725743175 19.23341620330935 1 0 3
1389 82 12 0.06 4.743994873781804 4.422132423953043 13.567542954893417 1 -1 2
1316 78 7 0.06 8.015765691881628 2.1703599228895674 15.402230362794663 1 3 4
3919 231 9 0.06 1.3889469353198853 14.040279725624957 19.125062527679596 1 -1 0
3819 225 11 0.06 7.191539801069578 2.1218498858571877 20.743885844546394 -2 2 -1
1640 97 8 0.06 2.4222763162536216 2.3356268709170633 18.921015532000904 1 0 3
1641 97 9 0.06 3.90229753463236 1.8133884171249726 19.71944696891538 1 0 3
1645 97 13 0.06 4.373315768481735 5.200866826622198 18.00233797137023 1 0 3
3920 231 10 0.06 4.174643440481635 13.821186575043772 18.03757573884523 1 -1 0
1053 62 16 0.1 10.700506993697555 11.31691817019572 14.78789703768642 1 0 -2
2180 129 4 -0.12 10.936852749778977 5.752423487930799 12.155014019114681 -1 0 0
1382 82 5 0.02 6.558439850028116 3.8154783237457353 11.480103057497033 1 -1 2
4585 270 12 0.06 5.337849329328547 13.628663817531894 15.777764705137843 -4 0 2
1643 97 11 0.06 5.304551571435352 2.7589482155122047 17.810173025699317 1 0 3
1326 78 17 0.1 11.136661910273297 5.258041385840823 16.7417685045813 1 3 4
1634 97 2 -0.12 4.257109016284453 3.0133786892797416 17.9670101411847 1 0 3
1642 97 10 0.06 3.78364075000002 3.0693350022625507 17.00479075904358 1 0 3
4582 270 9 0.06 3.0468958269319093 14.138483417880483 12.040286306696558 -4 0 2
1317 78 8 0.06 7.323651633316428 1.8737957031081531 16.924020702040423 1 3 4
1052 62 15 0.06 11.199286714876699 12.280586417771177 12.443579554690702 1 0 -2
2190 129 14 0.06 11.049652863131282 6.7487068258907685 12.507369068312258 -1 0 0
2181 129 5 0.02 10.002560689420784 5.089668220837476 13.171014547743214 -1 0 0
1635 97 3 -0.12 4.244080320542084 4.389244602860728 18.719608810983967 1 0 3
1314 78 5 0.02 11.179247734151211 5.454195600180471 17.817423484068037 1 3 4
1649 97 17 0.1 4.876898304854559 6.23384141900089 21.05909653071352 1 0 3
2193 129 17 0.1 9.061325612609938 5.551163132908902 13.004441604270085 -1 0 0
1381 82 4 -0.12 6.145858789408356 5.140619332398981 11.991358402387267 1 -1 2
4809 283 15 0.06 1.8239072232046452 3.7939822135598336 11.677672583745608 2 -2 2
2182 129 6 -0.22 10.560576855632867 5.394285183716025 14.374781468784557 -1 0 0
2192 129 16 0.1 9.957582413083344 3.9563229945088327 13.167865871932356 -1 0 0
1636 97 4 -0.12 5.483136498900644 4.45050858682969 19.75247313500535 1 0 3
3717 219 11 0.06 2.2698428075807406 8.351950504884908 21.281334236725275 -1 2 -2
4589 270 16 0.1 8.235273457718144 13.4452690166804 14.253931037024385 -4 0 2
4284 252 17 0.1 9.460627499363735 8.715174052059341 14.847220712279995 -3 -3 -1
3911 231 1 -0.18 2.461656729439809 14.16960772024582 19.153322003279836 1 -1 0
1043 62 6 -0.22 11.049272575855893 9.913404509049188 13.489385383220746 1 0 -2
4576 270 3 -0.12 5.310022115299129 13.653545881685798 14.713141290578664 -4 0 2
4437 261 17 0.1 1.476994083983808 10.026908491500556 15.774702865170134 1 -1 2
4277 252 10 0.06 8.673509570912442 10.462465498203848 19.386993310876598 -3 -3 -1
3923 231 13 0.06 3.7480605958888575 11.945965476127197 19.483023673387915 1 -1 0
1647 97 15 0.06 5.235000588004455 3.9074316209460114 20.60420434487535 1 0 3
4575 270 2 -0.12 3.9175701361749957 13.555720063555139 14.11554432703816 -4 0 2
5345 315 7 0.06 10.45300099625757 1.7717898669967678 12.170343268774086 -1 3 2
1394 82 17 0.1 5.809892961519186 3.0478013641483823 11.37227510283353 1 -1 2
1383 82 6 -0.22 7.416960822713499 3.1586923723127205 12.231221949495655 1 -1 2
3918 231 8 0.06 2.9074288229148912 13.946705333953807 20.06411614859055 1 -1 0
3810 225 2 -0.12 7.760490659554676 1.3466343154863623 21.197263400268902 -2 2 -1
1048 62 11 0.06 11.019626274838542 13.36247200644243 15.539577447391567 1 0 -2
4936 291 6 -0.22 2.6732310361711065 11.32122555767544 12.17208410247709 1 1 -2
4276 252 9 0.06 9.611318743438368 12.814191113716339 19.74199439222878 -3 -3 -1
4279 252 12 0.06 9.997402785275298 10.882010977990289 16.705465469587963 -3 -3 -1
4281 252 14 0.06 8.65138754596607 8.372661067768378 17.72386916969743 -3 -3 -1
4272 252 5 0.02 8.811608798803096 8.413296738947984 15.65960379872372 -3 -3 -1
4574 270 1 -0.18 3.9791844624650783 14.084878897843126 12.62035734661611 -4 0 2
4274 252 7 0.06 8.288948204437602 12.633380603995569 18.79527583072844 -3 -3 -1
4580 270 7 0.06 4.5982985598308534 13.417119150728059 12.015482095431482 -4 0 2
4586 270 13 0.06 5.712386306685186 14.629540408507175 14.42421295966247 -4 0 2
4282 252 15 0.06 10.281904529764802 8.588757829860281 17.17314375319171 -3 -3 -1
4271 252 4 -0.12 9.22898695758534 8.93560566750759 17.007531737194682 -3 -3 -1
4579 270 6 -0.22 7.887315400550074 13.137932591120954 16.142011411927303 -4 0 2
3921 231 11 0.06 2.672949119099828 13.622014293117704 17.108656339609148 1 -1 0
3924 231 14 0.06 5.2708287951025445 11.595694796473722 17.195209086994222 1 -1 0
3926 231 16 0.1 5.08692305297592 9.535928637463055 18.776758854203916 1 -1 0
1047 62 10 0.06 10.740751577184792 14.418354964625381 14.098162036339222 1 0 -2
1648 97 16 0.1 6.528157716212393 6.055191146503825 20.90123886111437 1 0 3
4273 252 6 -0.22 7.651096309916446 8.886390488351042 15.312766970435423 -3 -3 -1
4268 252 1 -0.18 9.2909948801455 12.345465315191507 18.816000322321546 -3 -3 -1
4590 270 17 0.1 8.372646237191498 11.810251854334819 14.757024451141355 -4 0 2
4278 252 11 0.06 10.241981061293387 10.372922885280499 19.1623519492058 -3 -3 -1
4275 252 8 0.06 9.765698862164939 12.767197685090142 17.9171288401781 -3 -3 -1
4947 291 17 0.1 2.2354260189135373 9.47313359429915 12.757149135495693 1 1 -2
3927 231 17 0.1 5.188405962419442 9.242995007034523 17.171898099652992 1 -1 0
3914 231 4 -0.12 4.269127654910775 11.149780987335518 17.467891755145423 1 -1 0
4583 270 10 0.06 3.4895542525265473 12.576717676931699 14.273960577024432 -4 0 2
1637 97 5 0.02 5.620748350384888 5.914097153182773 20.30970664778604 1 0 3
3915 231 5 0.02 4.497856487078431 9.728623018529786 17.85658791183824 1 -1 0
4588 270 15 0.06 5.798327435839048 11.617264982725562 14.677945289695284 -4 0 2
3922 231 12 0.06 2.394399796216044 11.475258443964835 18.505792415004652 1 -1 0
4946 291 16 0.1 3.8626363104349335 10.294908990543428 13.269548550953177 1 1 -2
4280 252 13 0.06 8.27421585502141 10.887341153501833 16.837093678526244 -3 -3 -1
4943 291 13 0.06 5.843332287931858 9.88619063748191 12.175851436116758 1 1 -2
3913 231 3 -0.12 3.362323030947213 11.950725289696901 18.433055591609016 1 -1 0
3912 231 2 -0.12 3.143171181451108 13.429961951937168 18.08296650328829 1 -1 0
4578 270 5 0.02 7.7823050825442355 12.71539055105225 14.86494574357909 -4 0 2
4270 252 3 -0.12 9.188869070406646 10.359536805207417 17.243615971699796 -3 -3 -1
3925 231 15 0.06 3.8909760276092964 11.192377528522398 16.43142840606776 1 -1 0
3916 231 6 -0.22 3.3557544172360942 9.08624061150649 18.059722726657714 1 -1 0
4935 291 5 0.02 3.117488096635933 10.118635613304775 12.450272263638091 1 1 -2
4587 270 14 0.06 6.444504398881917 12.252905123805084 13.269670453914419 -4 0 2
4269 252 2 -0.12 9.385562817778082 10.797144542853804 18.706820962083423 -3 -3 -1
1318 78 9 0.06 9.046299030020892 1.4636689101303864 16.57478078125726 1 3 4
4436 261 16 0.1 1.1486281947601071 9.046747363056628 17.198511998539878 1 -1 2
2655 157 3 -0.12 9.652682525517045 4.738090778446519 23.038475540299125 3 1 0
2664 157 12 0.06 10.02187098535537 5.730285788048804 22.98557628503885 3 1 0
465 28 6 -0.22 4.648807782300615 2.869070671486713 23.642778509631615 -2 2 0
464 28 5 0.02 3.9941113368469168 3.2662520302812137 24.74580058691271 -2 2 0
474 28 15 0.06 5.456581497967322 2.545690568150566 26.13415704631003 -2 2 0
473 28 14 0.06 4.324663704984349 1.3717757596666815 25.583195080948084 -2 2 0
463 28 4 -0.12 4.4078259926478145 2.3751908542483866 25.924781324481373 -2 2 0
462 28 3 -0.12 3.555183852038584 2.5901508032175453 27.16954209050404 -2 2 0
4724 278 15 0.06 6.006127885795052 4.6762988148547215 30.82952274497726 1 0 2
2654 157 2 -0.12 8.552642319677787 4.611557019993306 24.101316423118803 3 1 0
2659 157 7 0.06 6.775952931453291 4.490842594541611 22.883034030086883 3 1 0
2661 157 9 0.06 6.623254172853102 5.388128583829338 24.369465503499264 3 1 0
2653 157 1 -0.18 7.257035597225215 5.175806915380836 23.562332387656337 3 1 0
4387 259 1 -0.18 4.998759677929949 8.094789903521406 29.78535630106496 -1 -1 1
2660 157 8 0.06 7.44763073554349 6.1348391384898635 23.022188032747174 3 1 0
4722 278 13 0.06 7.010089871754405 2.9707027749979065 29.34864929517936 1 0 2
2504 148 5 0.02 10.29635656048955 10.545392904010077 24.025814003061235 0 -1 -5
476 28 17 0.1 2.9032573853830947 3.2437700397438185 24.57432257822665 -2 2 0
2663 157 11 0.06 8.90291083047707 5.203292741170897 24.948792392839042 3 1 0
5552 327 10 0.06 1.5811672324863109 9.156724692766929 29.833202325112026 0 1 -1
2662 157 10 0.06 8.38787507865494 3.55456276101523 24.43217656577036 3 1 0
4711 278 2 -0.12 8.381588553863274 4.702241723609881 29.498226214369367 1 0 2
2376 140 13 0.06 2.88064280515691 12.934752082815457 28.862078135878537 -2 4 3
3709 219 3 -0.12 1.3944453353057136 8.593572742880422 23.304663878513168 -1 2 -2
475 28 16 0.1 4.245529601717956 4.329895316054696 24.88766609264687 -2 2 0
1035 61 15 0.06 10.479517338613404 10.142995767720524 30.537287574584028 0 1 0
1034 61 14 0.06 10.637442473167019 8.439324701544958 30.55370858956888 0 1 0
4712 278 3 -0.12 7.574792872744316 3.4730655273081634 30.056137896607737 1 0 2
4710 278 1 -0.18 8.93177451922492 4.505033035120798 28.05182512430401 1 0 2
4718 278 9 0.06 8.26266397539074 4.300598029035141 27.236874040536264 1 0 2
4720 278 11 0.06 9.232183751538697 4.873245821600859 30.15968346085406 1 0 2
4388 259 2 -0.12 5.27480719323232 7.478342729473838 28.39812277495823 -1 -1 1
4713 278 4 -0.12 6.568144718501048 3.843928573238793 31.24910230568715 1 0 2
3818 225 10 0.06 8.675392789720041 1.7828527976642121 21.567718874471637 -2 2 -1
2366 140 3 -0.12 3.904388266781889 12.887489128053684 29.24576355465106 -2 4 3
4719 278 10 0.06 7.738174127853617 5.570644203922772 29.55729541533428 1 0 2
3723 219 17 0.1 3.5257253304887874 8.239864289464544 26.027067851060757 -1 2 -2
3722 219 16 0.1 2.069259150731997 9.079081537530405 25.800631144508493 -1 2 -2
2656 157 4 -0.12 10.76429408953759 3.754981465532609 23.323235417031164 3 1 0
4716 278 7 0.06 9.671622083369913 3.639126419331925 27.95872326772863 1 0 2
461 28 2 -0.12 4.0503275122400435 1.6489162355049762 28.33883273393055 -2 2 0
4389 259 3 -0.12 5.9015926857943555 8.648124759391091 27.60071873914926 -1 -1 1
4399 259 13 0.06 5.147429553656711 9.37910052091627 27.357591491845643 -1 -1 1
4717 278 8 0.06 9.450050884953978 5.372085058866952 27.819432907788187 1 0 2
4394 259 8 0.06 4.208171016141871 8.867288999603474 29.60680541785187 -1 -1 1
4397 259 11 0.06 5.97208962456284 6.577956730933742 28.414324362900537 -1 -1 1
4723 278 14 0.06 5.92244586413904 2.984887741434119 31.51555913465902 1 0 2
3720 219 14 0.06 3.359679104324796 9.038173513674424 23.680479167715795 -1 2 -2
4721 278 12 0.06 8.408534040292675 2.760774841433224 30.370175786098958 1 0 2
3721 219 15 0.06 3.07278865758302 7.263125298896715 23.535258571319865 -1 2 -2
472 28 13 0.06 2.518958104668427 2.3878486655722417 26.962048448935125 -2 2 0
4396 259 10 0.06 4.30367302834804 7.146142839868024 27.99055918241411 -1 -1 1
3710 219 4 -0.12 2.734872958171084 8.203172002704182 23.98987281253434 -1 2 -2
4395 259 9 0.06 5.9390368241871805 8.434682908704117 30.135669294742108 -1 -1 1
2370 140 7 0.06 6.605845348423585 11.512604795085188 27.597458857434038 -2 4 3
5543 327 1 -0.18 1.62445192216137 10.857564400457068 31.101825907246653 0 1 -1
5553 327 11 0.06 2.109078705705927 10.774401224373825 29.073691922402045 0 1 -1
4390 259 4 -0.12 6.4040648885047675 8.156689338469047 26.246010291396434 -1 -1 1
2373 140 10 0.06 4.251861244935061 11.788038111263537 27.362955841313127 -2 4 3
4400 259 14 0.06 5.630062282858999 7.5243810660625625 25.82341561620797 -1 -1 1
4401 259 15 0.06 7.326002392702752 7.6905282417395995 26.38555741297394 -1 -1 1
4393 259 7 0.06 4.621576105062868 7.2061638494885445 30.334063712451574 -1 -1 1
2364 140 1 -0.18 6.096903755936825 11.910623288992591 28.468704820715267 -2 4 3
2050 121 10 0.06 5.056063954470148 12.313341987850174 23.309517300344627 -2 1 -2
4954 292 7 0.06 1.301905311557165 13.39947369696592 27.657706607427585 3 -3 -1
2374 140 11 0.06 4.920123438210052 13.349300506244214 27.412828944375114 -2 4 3
2365 140 2 -0.12 4.742698495309494 12.475634278468213 28.03186793228128 -2 4 3
1024 61 4 -0.12 9.928202773937192 9.192788058320078 30.28181020207248 0 1 0
1025 61 5 0.02 9.643586609300378 9.27692983040551 28.768742032832524 0 1 0
2665 157 13 0.06 9.337671972392068 4.4296187499680375 22.02069633965201 3 1 0
1036 61 16 0.1 10.636729265684016 9.220493345897033 28.30425235933578 0 1 0
1032 61 12 0.06 7.932472558499226 8.344594906097845 31.062802839511132 0 1 0
1026 61 6 -0.22 9.00881961462462 8.173470579143315 28.279652548471663 0 1 0
1023 61 3 -0.12 8.690214135983878 9.082025141072346 31.24665157216453 0 1 0
3212 189 16 0.1 7.846091454828642 1.5862001889599433 27.726709239029876 -2 -1 5
5551 327 9 0.06 1.4717679110977515 11.932286377338164 31.044596199270867 0 1 -1
5544 327 2 -0.12 1.4167247349488614 10.212341998838948 29.731042347331407 0 1 -1
2372 140 9 0.06 6.724035685538857 12.583733350172423 28.968457394892884 -2 4 3
4398 259 12 0.06 6.732414156164458 9.205906809459167 28.04822331584014 -1 -1 1
3816 225 8 0.06 6.683225366083039 1.373493115757961 23.120601100751504 -2 2 -1
5498 324 7 0.06 10.37866020500684 12.23065931633946 28.849457104832986 -1 2 -1
1022 61 2 -0.12 7.977585267071288 10.432972351570674 31.49747432887806 0 1 0
1037 61 17 0.1 9.015151174135244 10.116574521188811 28.589258260732077 0 1 0
638 38 9 0.06 10.748876917344548 14.305190454394216 22.35339923787148 -3 -1 -2
2375 140 12 0.06 3.8793516733399764 12.107134886563347 30.06978208419035 -2 4 3
1031 61 11 0.06 7.592180891650841 10.730858447531201 30.580654363392625 0 1 0
2053 121 13 0.06 2.724607690216966 13.91181823191743 22.218705542261038 -2 1 -2
2516 148 17 0.1 10.238145654592326 10.27502625458264 25.125776035943858 0 -1 -5
2055 121 15 0.06 2.694016626860983 11.407302279724528 24.07571413018091 -2 1 -2
470 28 11 0.06 5.147032046996621 1.7227795469460339 28.426271523114124 -2 2 0
2054 121 14 0.06 2.7690311009056865 12.831218639289297 24.831366769885733 -2 1 -2
3708 219 2 -0.12 1.6144862099986934 9.039618724390909 21.92264617705245 -1 2 -2
2367 140 4 -0.12 4.303266806716563 14.236513665308918 29.849651494436664 -2 4 3
5499 324 8 0.06 10.777384683223787 13.017618433737736 27.388600298094396 -1 2 -1
2044 121 4 -0.12 2.3838806328716906 12.45518734126056 23.854871037578462 -2 1 -2
2043 121 3 -0.12 3.137676551380933 12.9640161003702 22.575990472203298 -2 1 -2
2378 140 15 0.06 5.317869649373328 14.34680113686908 30.06526728147425 -2 4 3
2048 121 8 0.06 4.6663580454157785 14.37649901132853 24.642267894644927 -2 1 -2
4391 259 5 0.02 6.642808776714633 9.359816649146017 25.29878445275687 -1 -1 1
4402 259 16 0.1 6.896426439645647 9.036231994681998 24.29739619677691 -1 -1 1
2047 121 7 0.06 6.166528586500575 14.614221760182325 23.519615204614993 -2 1 -2
2507 148 8 0.06 11.251145260569475 8.7454819409089 21.603442938323887 0 -1 -5
2666 157 14 0.06 10.423461921672363 2.713050788738432 23.27806098457936 3 1 0
2505 148 6 -0.22 9.678856917631096 9.545993809091977 23.4080960799505 0 -1 -5
4392 259 6 -0.22 5.579221387846112 10.147662994786417 25.28511817785796 -1 -1 1
2515 148 16 0.1 9.905179588151926 11.478529037695857 23.64483777680968 0 -1 -5
2052 121 12 0.06 2.9677541449644003 12.214550424601422 21.82016609634041 -2 1 -2
471 28 12 0.06 3.5855067022088978 3.6357717494200847 27.416399548047558 -2 2 0
5492 324 1 -0.18 11.156709323625515 12.633265612502916 28.28465626563956 -1 2 -1
3711 219 5 0.02 2.6094237715582276 8.188081265433073 25.48202807207767 -1 2 -2
2042 121 2 -0.12 4.635180280055145 13.143942486682878 22.81866120485383 -2 1 -2
2371 140 8 0.06 5.910939267876611 11.011869160215557 29.09293901898949 -2 4 3
3210 189 14 0.06 9.952992056460383 1.592992206120949 26.011653512959 -2 -1 5
2041 121 1 -0.18 5.083525156301452 14.397249614984487 23.60771123898271 -2 1 -2