LAMMPS data file via write_data, version 29 Aug 2024, timestep = 1000000, units = real

7168 atoms
14 atom types
7168 bonds
14 bond types
13312 angles
26 angle types
15360 dihedrals
30 dihedral types
4096 impropers
8 improper types

1.4482923966450514 43.551707603352014 xlo xhi
1.4482923966450514 43.551707603352014 ylo yhi
1.4482923966450514 43.551707603352014 zlo zhi

Masses

1 12.011
2 12.011
3 15.999
4 12.011
5 12.011
6 15.999
7 1.008
8 1.008
9 1.008
10 1.008
11 1.008
12 1.008
13 1.008
14 1.008

Pair Coeffs # lj/cut/coul/long

1 0.066 3.5
2 0.066 3.5
3 0.14 2.9
4 0.066 3.5
5 0.066 3.5
6 0.14 2.9
7 0.03 2.5
8 0.03 2.5
9 0.03 2.5
10 0.03 2.5
11 0.03 2.5
12 0.03 2.5
13 0.03 2.5
14 0.03 2.5

Bond Coeffs # harmonic

1 268 1.529
2 320 1.41
3 320 1.41
4 268 1.529
5 320 1.41
6 340 1.09
7 340 1.09
8 340 1.09
9 340 1.09
10 340 1.09
11 340 1.09
12 340 1.09
13 340 1.09
14 320 1.41

Angle Coeffs # harmonic

1 50 109.5
2 60 109.5
3 50 109.5
4 50 109.5
5 37.5 110.7
6 37.5 110.7
7 37.5 110.7
8 37.5 110.7
9 35 109.5
10 35 109.5
11 37.5 110.7
12 37.5 110.7
13 37.5 110.7
14 33 107.8
15 33 107.8
16 50 109.5
17 35 109.5
18 33 107.8
19 35 109.5
20 35 109.5
21 37.5 110.7
22 35 109.5
23 33 107.8
24 35 109.5
25 60 109.5
26 35 109.5

Dihedral Coeffs # opls

1 0.65 -0.25 0.67 0
2 0.65 -0.25 0.67 0
3 -0.55 0 0 0
4 0 0 0.76 0
5 0 0 0.76 0
6 -0.55 0 0 0
7 0.65 -0.25 0.67 0
8 0 0 0.468 0
9 0 0 0.3 0
10 0 0 0.3 0
11 0 0 0.76 0
12 0 0 0.3 0
13 0 0 0.76 0
14 0 0 0.76 0
15 0 0 0.3 0
16 0 0 0.468 0
17 0 0 0.468 0
18 0 0 0.468 0
19 0 0 0.3 0
20 0 0 0.3 0
21 0 0 0.76 0
22 0 0 0.468 0
23 0.65 -0.25 0.67 0
24 0 0 0.468 0
25 0 0 0.3 0
26 0 0 0.3 0
27 0 0 0.76 0
28 0 0 0.76 0
29 0 0 0.468 0
30 0 0 0.468 0

Improper Coeffs # cvff

1 0 -1 2
2 0 -1 2
3 0 -1 2
4 0 -1 2
5 0 -1 2
6 0 -1 2
7 0 -1 2
8 0 -1 2

Atoms # full

885 64 3 -0.4 6.281090123582719 9.967993395191785 3.201298096965812 0 1 -1
4525 324 3 -0.4 11.386704650799455 7.868422489553421 2.7610300483432244 0 1 1
4529 324 7 0.03 9.833515798410462 9.39429904486666 5.236365184377837 0 1 1
5553 397 9 0.03 4.573644710863423 5.877630369680814 5.375991060127442 0 0 1
2499 179 7 0.03 8.59119464497008 5.505966553549614 4.524413662071323 -2 2 -1
5550 397 6 -0.4 1.7785558745305985 5.096186240752065 3.8544375332842358 0 0 1
4084 292 10 0.03 7.233088060085371 7.25948706836941 2.3852824885212613 -1 -1 -1
2493 179 1 0.14 8.373761399294818 4.472501260316499 4.912542978722651 -2 2 -1
2504 179 12 0.03 5.667662722840029 3.2814789771892348 6.229076284026104 -2 2 -1
5552 397 8 0.03 3.0955979108547487 3.837985387335319 4.778267826939036 0 0 1
894 64 12 0.03 7.872197121364185 11.33210630680905 3.3561831418140633 0 1 -1
4531 324 9 0.03 10.821451201813549 7.0536136917107175 4.600359720564628 0 1 1
4527 324 5 0.14 11.008061911491028 10.170020312649775 2.316193954326141 0 1 1
2498 179 6 -0.4 8.07535762116292 4.702157775152143 6.304179119568733 -2 2 -1
4536 324 14 0.03 11.429200914930293 11.103405899729303 1.9455276457864452 0 1 1
891 64 9 0.03 5.205472531699588 9.05302120111638 4.636207054951937 0 1 -1
890 64 8 0.03 4.0441796474937615 10.907228301332646 3.565256040269016 0 1 -1
4530 324 8 0.03 9.158513514473105 8.90155009937017 3.6119579606061887 0 1 1
5547 397 3 -0.4 4.303514441640026 5.914358653525386 3.3527649391983645 0 0 1
5548 397 4 0.14 3.275630628897906 5.974063784636186 2.282864663493888 0 0 1
5546 397 2 0.14 3.752356129103549 6.016803421397518 4.649232936270798 0 0 1
2494 179 2 0.14 7.267682034260351 3.6649228690829125 4.167814305265065 -2 2 -1
5551 397 7 0.03 2.15093055004887 4.922632530715472 5.7773523460145135 0 0 1
2501 179 9 0.03 7.5212504095124935 3.2949236964264603 3.1159825243629524 -2 2 -1
889 64 7 0.03 4.095003334485121 11.115228154049365 5.484488688907686 0 1 -1
7080 506 10 0.03 4.770355262317532 1.641536491136762 3.1665107897743385 1 1 1
5549 397 5 0.14 2.2393268977447836 4.892765431378987 2.5233951293432337 0 0 1
4077 292 3 -0.4 7.833543368152756 5.582030963870403 1.5416632796325629 -1 -1 -1
2502 179 10 0.03 6.375296376364571 4.31753424257999 4.092651219897403 -2 2 -1
4524 324 2 0.14 11.130877964913688 7.973411900518008 4.176571237844498 0 1 1
4523 324 1 0.14 10.100212293339137 9.138459026277204 4.199698315746293 0 1 1
5556 397 12 0.03 2.853156803494334 6.917529743053124 2.3355701793972217 0 0 1
5554 397 10 0.03 3.3024055748345083 6.949049100967218 4.807668415301776 0 0 1
5545 397 1 0.14 2.706870714865446 4.828668030475493 4.831522084601334 0 0 1
4078 292 4 0.14 9.159920592773366 5.742550464934242 1.5766377502505111 -1 -1 -1
883 64 1 0.14 4.594530618129729 11.16359632567189 4.4830301521902935 0 1 -1
892 64 10 0.03 6.367104413713856 10.32939200226126 5.286263387535076 0 1 -1
5557 397 13 0.03 2.677120849087597 3.8443565369128443 2.3717990182248605 0 0 1
2495 179 3 -0.4 7.0411520333397934 2.467973466026544 4.878051927629938 -2 2 -1
884 64 2 0.14 5.682078086740492 10.018343949266269 4.457501017491314 0 1 -1
1865 134 3 -0.4 9.965305181284833 1.4678938753833124 4.757251157900704 -2 0 1
2496 179 4 0.14 6.6171865241806485 2.746593029766079 6.2728789275875485 -2 2 -1
2500 179 8 0.03 9.197950000450486 3.8168099493372787 4.9552833229797315 -2 2 -1
4086 292 12 0.03 9.403709234053483 6.323096051413275 2.4603203924943218 -1 -1 -1
4528 324 6 -0.4 10.730816580440347 10.296544147160764 3.6840641552875493 0 1 1
4535 324 13 0.03 10.116821380069007 9.943926384044321 1.6979311904288694 0 1 1
4893 350 7 0.03 11.490236896114356 2.4626980096154893 2.160956236760034 0 1 -1
886 64 4 0.14 6.915456253614101 11.186214460689175 2.771944724195269 0 1 -1
893 64 11 0.03 7.183105146539779 11.117105139648244 1.6900703882179684 0 1 -1
7079 506 9 0.03 4.0883151529620285 2.1787006670788287 1.654843989317136 1 1 1
3550 254 8 0.03 2.839286586077246 9.148094822835972 1.9938969642903008 1 0 0
4532 324 10 0.03 11.91554994646559 8.45362136332841 4.763335888558472 0 1 1
1386 99 14 0.03 11.747223510477518 11.69270513787678 6.669356995331121 0 0 0
4085 292 11 0.03 9.462679983499276 4.689691856132108 1.5910846707151145 -1 -1 -1
4477 320 11 0.03 11.403999823795958 4.214107532633653 6.643445396422533 1 0 -1
4480 320 14 0.03 10.678633630423457 6.7313443127630785 6.685321731593154 1 0 -1
4472 320 6 -0.4 11.225499574839779 6.88866650969048 8.681161252983333 1 0 -1
4905 351 5 0.14 6.832456760122512 5.584084309965305 11.952441669471392 0 1 1
1654 119 2 0.14 2.9218888547317325 4.981006769239348 9.685360867931687 -2 1 1
4907 351 7 0.03 5.842724482838271 8.00458632021974 9.853194078582572 0 1 1
4901 351 1 0.14 6.566104783604757 7.321903566782398 10.340642923033982 0 1 1
4912 351 12 0.03 6.693799449961378 4.096018961093392 10.330200974216813 0 1 1
4467 320 1 0.14 11.605252533046057 6.284718416519056 9.967532196489145 1 0 -1
2497 179 5 0.14 7.733824056481384 3.5219981072486557 7.015506401337976 -2 2 -1
5352 383 4 0.14 3.122106934076856 9.356641362925604 10.424532450819555 1 0 3
5402 386 12 0.03 7.36617553601405 9.724306499981784 8.112929775607089 -1 0 0
5401 386 11 0.03 9.037287095848363 9.300184140796642 7.8018896658036665 -1 0 0
5812 416 2 0.14 11.970486750073391 11.955446257634158 10.916666439832431 -1 0 0
4908 351 8 0.03 7.122119858092614 8.067049869573712 10.92214851484865 0 1 1
5359 383 11 0.03 3.6018677912624666 9.777482367920834 11.28641005605864 1 0 3
5439 389 7 0.03 10.056336411816163 2.2009515895469347 11.239330473442951 -1 1 2
4471 320 5 0.14 10.836081064156454 6.087465353141685 7.631686710527921 1 0 -1
4906 351 6 -0.4 5.975607131293207 6.509091453009306 11.305686821208383 0 1 1
5357 383 9 0.03 2.8181769842707842 10.468724915160927 7.409461632906421 1 0 3
2506 179 14 0.03 7.572366563656812 3.7000518527028654 8.072279158573398 -2 2 -1
1658 119 6 -0.4 4.366307792264648 3.407002696032095 8.675108693077904 -2 1 1
1653 119 1 0.14 3.4961323223691183 4.481921962743621 8.382916253667336 -2 1 1
1661 119 9 0.03 2.2997359310631764 5.782086502286907 9.441140111204085 -2 1 1
5403 386 13 0.03 10.019364270673032 11.031003677040804 8.912250329215423 -1 0 0
5360 383 12 0.03 3.5570382961872635 8.444108126222769 10.143993368272714 1 0 3
4470 320 4 0.14 11.805364987860381 4.891793984440055 7.383906465021907 1 0 -1
5395 386 5 0.14 8.992530368585651 10.898092877344846 9.261034304741438 -1 0 0
4474 320 8 0.03 10.684438289196812 5.845168123723798 10.423033475857023 1 0 -1
4904 351 4 0.14 7.439089818459277 4.719783785308778 10.795666341864852 0 1 1
1664 119 12 0.03 3.8935194722795137 3.2483879329957186 11.316829098139085 -2 1 1
1660 119 8 0.03 2.6873620456642593 4.091046873904331 7.849757486123799 -2 1 1
4903 351 3 -0.4 8.153397113303146 5.591865115850447 9.872684071302372 0 1 1
6770 484 8 0.03 6.4562540020484125 11.0103875559847 11.470486957236313 1 1 0
5442 389 10 0.03 8.737599409058177 2.058212831650195 9.353058546028318 -1 1 2
5353 383 5 0.14 1.6565189951726151 9.187986305364678 10.67280222606531 1 0 3
4911 351 11 0.03 8.288050600303393 4.07244575576355 11.108210183372238 0 1 1
1663 119 11 0.03 2.468003050051787 2.115776425531502 11.06245846524155 -2 1 1
1662 119 10 0.03 3.6846627176916504 5.546916667951169 10.257846913204052 -2 1 1
5351 383 3 -0.4 3.379378866960125 10.203251437085425 9.323202755374801 1 0 3
5404 386 14 0.03 9.017954376410565 10.27882012347341 10.146354694888227 -1 0 0
1659 119 7 0.03 3.8755614826385236 5.313929438853995 7.863427068308139 -2 1 1
5358 383 10 0.03 3.257854100021383 8.87188588981801 7.85225056317623 1 0 3
2503 179 11 0.03 6.36586295329645 1.82772524728929 6.840957373170719 -2 2 -1
1655 119 3 -0.4 2.2227257428952742 3.957579512388514 10.345890987350788 -2 1 1
429 31 9 0.03 10.764469681157074 8.918937793484943 11.551473823173009 0 1 0
1657 119 5 0.14 3.760211216675047 2.4021831406736283 9.362681141723039 -2 1 1
5394 386 4 0.14 8.380614297454265 10.116177696965075 8.040927015127322 -1 0 0
5393 386 3 -0.4 8.27851999398216 10.979562242554419 6.849658030784451 -1 0 0
1665 119 13 0.03 3.1221804647461484 1.7998238257789176 8.696266734536216 -2 1 1
4909 351 9 0.03 7.998847171195368 7.288333963689441 8.8385227802739 0 1 1
4910 351 10 0.03 6.685532756343905 6.1798113183678325 8.615942763612026 0 1 1
4902 351 2 0.14 7.336607045459282 6.569392618769806 9.262390512626371 0 1 1
1656 119 4 0.14 3.079158911643888 2.913474022560258 10.638096344441104 -2 1 1
5350 383 2 0.14 2.7387563537701136 9.726563233059112 8.152075437510316 1 0 3
1666 119 14 0.03 4.520195420092305 1.6576634975907683 9.586011392201616 -2 1 1
4479 320 13 0.03 9.850578096098427 5.846558232164629 8.023021872545144 1 0 -1
2505 179 13 0.03 8.555310519726062 2.908327170799395 7.184499350297749 -2 2 -1
805 58 7 0.03 2.6708959708243523 6.681741843331685 11.93900898402733 -1 1 0
5819 416 9 0.03 11.863429682721172 10.975674468211473 10.46748414244491 -1 0 0
430 31 10 0.03 10.453936988475638 7.5502946252688545 12.529471584803263 0 1 0
2659 190 13 0.03 3.32900972203037 2.503944535194739 13.659966342998578 -1 2 1
2929 210 3 -0.4 11.182959291130217 4.972909899951867 16.496208651715904 0 -1 -1
6763 484 1 0.14 6.998138480449986 11.377429670012548 12.388763043891824 1 1 0
6776 484 14 0.03 5.409179475123356 9.399974773687273 14.501528439913686 1 1 0
810 58 12 0.03 1.883639862314597 4.719452006657113 15.333383237284648 -1 1 0
808 58 10 0.03 3.4955515907035593 4.807857918658371 13.517338411301651 -1 1 0
2932 210 6 -0.4 9.423775988379138 2.9578241067217794 16.868739458601326 0 -1 -1
2653 190 7 0.03 5.492508130282123 3.4018965440628763 16.354736954081602 -1 2 1
2931 210 5 0.14 9.457929633739203 3.4725071520517083 15.55578096572794 0 -1 -1
1624 116 14 0.03 4.664211382749739 7.762647355881942 16.76827850181197 -1 1 1
6773 484 11 0.03 3.706434783096173 11.160771801986344 14.161160538829334 1 1 0
421 31 1 0.14 10.187736722555096 9.334399780117296 13.72036153084481 0 1 0
2937 210 11 0.03 10.154230526653178 5.289123908855206 14.654109073489861 0 -1 -1
2930 210 4 0.14 10.03372463313758 4.897416064040831 15.6631523224295 0 -1 -1
1616 116 6 -0.4 3.890491769292417 9.60463723521616 16.650973157508524 -1 1 1
422 31 2 0.14 10.901522766190327 8.512014055548757 12.595890246954006 0 1 0
2934 210 8 0.03 11.520604741400575 2.4442693592439007 16.986840300834107 0 -1 -1
6774 484 12 0.03 5.0972847212898795 11.782286557836077 14.994434502198638 1 1 0
807 58 9 0.03 4.533317867755546 6.103010073143304 13.349084415736796 -1 1 0
2652 190 6 -0.4 5.093019378344552 2.5137388862699113 14.600289260227537 -1 2 1
6768 484 6 -0.4 6.851815112557342 10.381940050838828 13.333483238480992 1 1 0
802 58 4 0.14 2.045489664803877 5.727641794957286 15.552382391650635 -1 1 0
799 58 1 0.14 2.5731947286823234 6.809454718353552 13.027182948143677 -1 1 0
426 31 6 -0.4 10.490079732503341 8.759508175412106 15.01116922295959 0 1 0
1620 116 10 0.03 5.769640908870572 11.52161810647087 17.12547557036695 -1 1 1
2647 190 1 0.14 4.585598832320457 2.9492970397411473 15.856029754491729 -1 2 1
4913 351 13 0.03 7.5953395533778325 6.063652402365231 12.552448726592292 0 1 1
2431 174 9 0.03 10.277279549731613 11.35773872783678 16.119546877272583 0 2 1
1617 116 7 0.03 3.4308205328841734 11.612717105459497 16.497487671832552 -1 1 1
2654 190 8 0.03 3.8583450215633524 3.688795594186096 15.688683485083248 -1 2 1
2940 210 14 0.03 8.468719105585528 3.48766143749071 15.108170726597395 0 -1 -1
2224 159 12 0.03 1.472715431526895 10.24085825206315 13.872908222778452 -1 2 1
6767 484 5 0.14 5.512515327505959 10.12689975835853 13.719279467076868 1 1 0
2938 210 12 0.03 9.297210643804984 5.560389937074848 16.046096685621603 0 -1 -1
809 58 11 0.03 1.987615196334694 5.692534055080916 16.61328663571399 -1 1 0
806 58 8 0.03 2.88679880694429 7.886642332699692 13.272780888315433 -1 1 0
6766 484 4 0.14 4.742005710667052 11.354515234407392 14.087937417584682 1 1 0
4914 351 14 0.03 6.337141302409622 5.020831761072038 12.726012117394527 0 1 1
2648 190 2 0.14 3.930291566449189 1.806068414213702 16.68213503543336 -1 2 1
427 31 7 0.03 9.074108022626055 9.290932827632682 13.644429046495302 0 1 0
2939 210 13 0.03 10.092377160390122 2.856616468033179 14.991331194157372 0 -1 -1
428 31 8 0.03 10.38915512982953 10.393175255823985 13.663258658227534 0 1 0
801 58 3 -0.4 3.393791659836052 6.036313441397577 15.174737752432176 -1 1 0
800 58 2 0.14 3.5519757109302836 5.8873500220357 13.714158371867187 -1 1 0
2651 190 5 0.14 4.146375902476013 1.8511093726404937 13.878191337203912 -1 2 1
6775 484 13 0.03 5.003065607104839 9.7307353394154 12.808535514257072 1 1 0
6769 484 7 0.03 7.9997367673932676 11.665511864180292 12.124227753859019 1 1 0
2660 190 14 0.03 4.602342871743591 1.6409689978068436 12.909787671479762 -1 2 1
425 31 5 0.14 11.879969055454351 8.722849902666725 15.20273907106336 0 1 0
1614 116 4 0.14 5.697132266676688 9.079651519128177 18.190360172044148 -1 1 1
3755 269 3 -0.4 10.28545211431709 9.748268200421386 19.279004123889706 0 -1 0
1611 116 1 0.14 3.641839630590705 10.85995081220071 17.283463095304306 -1 1 1
2936 210 10 0.03 10.290049359260607 4.8593730694653265 18.392521051156862 0 -1 -1
5752 411 12 0.03 5.6928120504825985 4.8078928291981935 21.591902179536685 0 0 -1
5741 411 1 0.14 6.2067762917875955 2.6657821061974376 19.285889102386935 0 0 -1
1615 116 5 0.14 4.442709159543911 8.598257512347907 17.416102033482538 -1 1 1
5751 411 11 0.03 6.557605542578033 5.971817756779401 20.872892347845628 0 0 -1
6616 473 8 0.03 5.81744363731915 11.342059567636289 21.14960985920094 -1 -1 0
3758 269 6 -0.4 11.103823345527985 8.00133284486168 21.37373145856863 0 -1 0
3763 269 11 0.03 10.780520160933913 11.241519451832426 20.54392742946637 0 -1 0
5742 411 2 0.14 7.03175487145489 2.780134099040758 20.58990855472266 0 0 -1
5748 411 8 0.03 6.668236177836857 2.898812417796162 18.30563763358893 0 0 -1
3762 269 10 0.03 11.62549910544204 8.136136292891068 18.706017370153305 0 -1 0
1621 116 11 0.03 6.026233614510987 8.270656078482896 18.893978040512383 -1 1 1
5744 411 4 0.14 6.301840850141088 4.965428852883271 20.68356720527422 0 0 -1
3757 269 5 0.14 10.86478758126948 9.359003516468597 21.584936649137067 0 -1 0
1612 116 2 0.14 4.989690982107294 11.311787469182859 17.879559926678112 -1 1 1
5746 411 6 -0.4 5.127017606875843 3.5666284396364185 19.227820118331987 0 0 -1
3754 269 2 0.14 10.604198260257306 8.331752067623325 19.038167711182663 0 -1 0
5754 411 14 0.03 4.678482316285558 5.556831541490466 19.32583257794506 0 0 -1
1613 116 3 -0.4 5.54200584955498 10.368215163097963 18.772224358891133 -1 1 1
2928 210 2 0.14 11.049738809982776 4.36934445048227 17.81254797743 0 -1 -1
1971 141 11 0.03 1.894949219500108 3.2222838167216237 18.55158143862643 2 0 1
4015 287 11 0.03 2.0539099982772964 11.49669489080337 20.48899153639322 1 0 0
5753 411 13 0.03 6.132080916495064 5.1668529856119 18.43722675582024 0 0 -1
3753 269 1 0.14 10.212058602751354 7.58217592269635 20.34349814012996 0 -1 0
2933 210 7 0.03 10.549861038180978 2.34089620089573 18.44144375543106 0 -1 -1
5743 411 3 -0.4 7.413236526601995 4.116812053928232 20.881832003175816 0 0 -1
5747 411 7 0.03 5.704800019190812 1.6859332308088009 19.233858196065476 0 0 -1
2927 210 1 0.14 10.687764809895027 2.8775892800249787 17.53374288504972 0 -1 -1
1623 116 13 0.03 3.658708432226643 8.388814302204906 18.119642833071776 -1 1 1
2655 190 9 0.03 3.3902734412297444 2.3502300465576726 17.42322173491749 -1 2 1
3756 269 4 0.14 11.08307504577463 10.229826988575033 20.36851220888303 0 -1 0
1618 116 8 0.03 2.8769865937310555 10.933206029298859 18.08350850734737 -1 1 1
3759 269 7 0.03 10.270348296630235 6.540040144494107 20.18713933257705 0 -1 0
67 5 11 0.03 3.575101437855251 2.684923626593449 21.949674051608586 1 0 0
5749 411 9 0.03 7.9104877930459345 2.133937018737858 20.441478786690205 0 0 -1
3765 269 13 0.03 9.864683147085227 9.430211158402134 22.028446598060576 0 -1 0
3760 269 8 0.03 9.198731084752296 7.780804650070047 20.660081749206046 0 -1 0
2432 174 10 0.03 9.782867667220126 11.749477943617933 17.84530657516564 0 2 1
5750 411 10 0.03 6.538279813017655 2.438290257560141 21.49000400302491 0 0 -1
5745 411 5 0.14 5.548378676783922 4.938116966381692 19.346979501114582 0 0 -1
3766 269 14 0.03 11.489120786785744 9.65707607927408 22.35949436572517 0 -1 0
3761 269 9 0.03 9.910674557075408 7.968156399004925 18.23356357534487 0 -1 0
1622 116 12 0.03 6.534985443121783 9.00510774267806 17.50216263953679 -1 1 1
2066 148 8 0.03 11.172105597832612 1.8007125489001965 22.391483279003705 2 0 1
5707 408 9 0.03 7.042262653623775 2.6165743848327776 24.128712355049025 0 2 1
1762 126 12 0.03 2.0049250954914015 2.896247076104123 27.012876127601228 1 -1 0
5705 408 7 0.03 8.829484104657407 3.7154164309947677 23.437830088235827 0 2 1
1753 126 3 -0.4 2.8774202327544787 4.59372900018531 26.099440067106627 1 -1 0
68 5 12 0.03 3.83342299666784 2.8048806995668203 23.720899827226862 1 0 0
5708 408 10 0.03 7.224641931138145 3.993320806221862 25.253978485433958 0 2 1
1496 107 12 0.03 7.3199378402878805 6.210723802321099 24.420925648733704 -1 0 1
5711 408 13 0.03 10.219042076278102 1.8039134649544863 26.291241728544527 0 2 1
1755 126 5 0.14 4.1301141294286445 3.093661263338923 27.460402991489467 1 -1 0
7040 503 12 0.03 10.905558620868195 11.080417207162531 27.29646947377292 0 1 1
1490 107 6 -0.4 5.7305605122391166 8.033341971668921 25.886468747745354 -1 0 1
1754 126 4 0.14 2.8954797498972846 3.227515676133974 26.518986161117034 1 -1 0
5703 408 5 0.14 9.876858085295172 2.8112238699714975 26.48534960901405 0 2 1
2966 212 12 0.03 10.425764663169641 6.575328654297519 26.609160963169483 -2 1 0
1489 107 5 0.14 6.952841559292319 8.353292359063483 25.158162052506984 -1 0 1
2965 212 11 0.03 11.284570905551186 7.942331229316462 27.45058385963418 -2 1 0
2964 212 10 0.03 7.974506349965709 6.202007824239265 27.23773933903839 -2 1 0
1284 92 10 0.03 3.7939803462062383 11.459343457098676 25.352525020205437 0 1 0
5702 408 4 0.14 8.491386148483372 2.762099165860273 27.10815341080656 0 2 1
1494 107 10 0.03 4.7702031545913455 5.87015516753377 24.667837079298618 -1 0 1
1498 107 14 0.03 7.750644530105508 8.368729979873592 25.88637080411212 -1 0 1
2958 212 4 0.14 10.495157126374663 7.115256393905651 27.591428485210916 -2 1 0
1492 107 8 0.03 4.451408861430231 8.986824825838898 24.601315207122013 -1 0 1
1759 126 9 0.03 2.4883892023389773 6.454500040900615 26.74660853106115 1 -1 0
1763 126 13 0.03 5.082487577966495 3.202159262680129 26.856475828428266 1 -1 0
6611 473 3 -0.4 8.183636137744795 11.62722109984517 22.69847280578953 -1 -1 0
1497 107 13 0.03 6.8815513435066915 9.307909080458373 24.865253145741015 -1 0 1
1495 107 11 0.03 7.942863320811952 7.500088700608472 23.352878602969337 -1 0 1
1486 107 2 0.14 4.701942976729565 6.838912401873443 24.05936411073776 -1 0 1
5701 408 3 -0.4 7.547280046963628 2.179320395765144 26.215099133741667 0 2 1
1487 107 3 -0.4 5.885975106348835 7.156838476736979 23.33801524366274 -1 0 1
6617 473 9 0.03 6.577903642126258 10.951417483261503 23.550743316470694 -1 -1 0
1491 107 7 0.03 3.656113815361475 8.060691155930806 25.730230973465797 -1 0 1
5706 408 8 0.03 9.337582146337898 2.2065183735049176 24.029505065589717 0 2 1
1493 107 9 0.03 3.7842909465433827 6.808571076318806 23.393797795005877 -1 0 1
5710 408 12 0.03 8.033993996370537 3.7487063917362358 27.326520883812822 0 2 1
1485 107 1 0.14 4.589655236035302 7.978750663909824 25.075935009252426 -1 0 1
5704 408 6 -0.4 9.910627931395988 3.6018224421413376 25.263938238722982 0 2 1
5699 408 1 0.14 8.981966822245965 3.1361953753779517 24.366901089273345 0 2 1
1761 126 11 0.03 3.0551801440028266 2.5476400738587097 25.736638396092136 1 -1 0
5700 408 2 0.14 7.584644737148578 2.9958512784256284 25.00869404591462 0 2 1
1488 107 4 0.14 7.121903370143531 7.2220667513426 24.0492875790254 -1 0 1
1752 126 2 0.14 2.6042670084299337 5.4563186037722335 27.166079741405262 1 -1 0
2065 148 7 0.03 11.948032949500652 3.380616592789073 22.65840098265782 2 0 1
60 5 4 0.14 3.6191148099536807 2.2008409679241363 22.928036826304147 1 0 0
5712 408 14 0.03 10.605079286075094 3.3115631228582556 27.119149687986557 0 2 1
1286 92 12 0.03 2.7851067809158225 11.70449607174967 27.56466995243592 0 1 0
70 5 14 0.03 1.5062098673447235 1.9262586124839667 23.288748502947232 1 0 0
6610 473 2 0.14 6.8985903065425465 11.843700850764405 23.072450616614148 -1 -1 0
1760 126 10 0.03 1.6838597297860676 5.09491500664093 27.677279267142527 1 -1 0
4824 345 8 0.03 2.0108195380671794 9.38721217869559 27.04418564893027 1 1 0
919 66 9 0.03 7.7638764180751485 10.071413198787434 27.70777448173198 0 1 0
1756 126 6 -0.4 4.099277079301952 4.022318632839557 28.550451707077276 1 -1 0
237 17 13 0.03 9.792306539913024 1.6391995027411324 30.024572000095944 -2 -1 0
4190 300 4 0.14 8.572250529578161 7.572471567597542 32.85172486309642 -2 1 1
2022 145 6 -0.4 3.12338041376485 6.300096638400663 31.351715976098685 0 -2 0
914 66 4 0.14 8.089993587992126 11.635828754089497 30.560398430418587 0 1 0
228 17 4 0.14 11.314213132696633 2.9692879032984525 30.624286551561 -2 -1 0
2968 212 14 0.03 11.725414071676445 5.714703746066276 28.722727145074487 -2 1 0
7042 503 14 0.03 11.729474090478858 9.694739553105192 29.122072202853115 0 1 1
238 17 14 0.03 9.164956751552253 3.2005445605108394 30.699919972757677 -2 -1 0
4188 300 2 0.14 10.343649036705605 8.884581500984755 32.02684077750057 -2 1 1
2956 212 2 0.14 8.18068414791384 6.809253008978598 28.118674897971076 -2 1 0
5709 408 11 0.03 8.600990633549692 2.1163545066259966 27.943896057813323 0 2 1
2967 212 13 0.03 11.058671745437072 7.104441671925164 29.57592350947828 -2 1 0
2960 212 6 -0.4 9.800987714276278 5.304766619677602 29.050660753982537 -2 1 0
4821 345 5 0.14 1.7131882929251145 8.679312562938076 29.45849074763459 1 1 0
236 17 12 0.03 11.367642986528768 3.97125914833549 31.057356373303715 -2 -1 0
230 17 6 -0.4 9.754657049889369 1.8166158498072387 32.049067781680904 -2 -1 0
3928 281 8 0.03 3.7474233969080792 10.811377948207706 31.682559590462954 3 1 -1
7034 503 6 -0.4 11.575061822695899 11.562946780503827 29.876967516075297 0 1 1
229 17 5 0.14 9.94493152922258 2.379451681489203 30.770356770303252 -2 -1 0
2023 145 7 0.03 2.159991971030878 4.4091586594409815 30.957672481236287 0 -2 0
2962 212 8 0.03 8.729091100963064 6.566292169812162 30.27225774231593 -2 1 0
2017 145 1 0.14 2.7991885193948756 4.938616434930105 31.708993113336238 0 -2 0
2957 212 3 -0.4 9.258156431150969 7.748590484573084 27.92565137113071 -2 1 0
3929 281 9 0.03 1.8171330281842693 11.706029314380752 30.312521684056406 3 1 -1
4829 345 13 0.03 2.726555312595412 8.432181458477887 29.075982650946766 1 1 0
2612 187 8 0.03 6.039841657569501 1.8788610253016556 31.23140448712724 1 3 0
1757 126 7 0.03 3.511424336039909 5.832268084641213 29.02256165481999 1 -1 0
2030 145 14 0.03 4.36598833645566 7.856710449790539 31.884462405169053 0 -2 0
2955 212 1 0.14 8.61739603383013 5.942748675190603 29.372662046209463 -2 1 0
922 66 12 0.03 7.690948386325822 10.86988510579469 31.215367838715544 0 1 0
4195 300 9 0.03 11.360777819066909 8.715452220721442 31.611244318931448 -2 1 1
912 66 2 0.14 7.485788332117819 10.414664264519258 28.65890485363044 0 1 0
2611 187 7 0.03 4.678613992981582 1.788147208750684 30.244154406851006 1 3 0
4196 300 10 0.03 9.773002954362067 9.07525006396189 31.129347485542464 -2 1 1
4198 300 12 0.03 7.837948407822848 7.639289401608262 32.08212133352958 -2 1 1
911 66 1 0.14 6.397238394595868 11.504038578902998 28.344459516272785 0 1 0
2029 145 13 0.03 5.008085155368043 6.290658418829259 32.14820135451392 0 -2 0
2024 145 8 0.03 3.753604177748799 4.420241784074505 31.71094270985468 0 -2 0
1758 126 8 0.03 4.699556977781048 5.893237822827256 27.771814289307056 1 -1 0
4830 345 14 0.03 1.9795166758771063 8.962416699820967 30.429919948533573 1 1 0
4189 300 3 -0.4 9.961935216322251 7.574572129856328 32.58084764424403 -2 1 1
235 17 11 0.03 11.493300057558079 3.0489395324733106 29.553743844700744 -2 -1 0
920 66 10 0.03 7.157552793924131 9.583379024280834 29.341556970396137 0 1 0
4193 300 7 0.03 10.499267504894776 10.87978495218788 32.79682401367694 -2 1 1
2021 145 5 0.14 4.093422540553078 6.901830379965304 32.279326973979856 0 -2 0
2963 212 9 0.03 7.260684498776575 7.333813320523354 28.396826042169117 -2 1 0
2961 212 7 0.03 7.944053113208578 5.236287025085625 29.640447151764196 -2 1 0
2959 212 5 0.14 10.806161037764923 6.280470218746165 28.827237243431547 -2 1 0
913 66 3 -0.4 8.588933423992042 10.935704739090916 29.4241254338547 0 1 0
1751 126 1 0.14 3.796709104122726 5.395374040957695 28.156100084116257 1 -1 0
1764 126 14 0.03 4.250897599906981 2.126539685723046 27.90144255351804 1 -1 0
3921 281 1 0.14 3.391358387555986 11.902606724360522 31.829328893184123 3 1 -1
917 66 7 0.03 5.567561039268772 10.910651066964373 27.897211052767734 0 1 0
867 62 13 0.03 6.274722170915481 3.9382354714051715 37.212797401740616 0 2 -1
856 62 2 0.14 7.718242336355477 3.5165998780987007 34.449634181231986 0 2 -1
456 33 8 0.03 7.1919703123502 6.96174714408188 37.6102952989881 0 1 -1
3925 281 5 0.14 2.582768425282748 11.56349286901809 33.989185103557325 3 1 -1
1084 78 6 -0.4 2.885894500290596 10.627886276312763 37.82828883177637 -1 0 1
1083 78 5 0.14 1.757164335758696 9.758338404280229 37.82241744567578 -1 0 1
1090 78 12 0.03 1.8252805079504706 8.737264230282424 35.82624530515515 -1 0 1
864 62 10 0.03 7.420053298588995 4.073053126745716 33.611698846188894 0 2 -1
2028 145 12 0.03 2.7416115715979807 7.6223428811996365 33.736038923607836 0 -2 0
1087 78 9 0.03 5.1168605690124735 8.060533249004509 37.045645860375416 -1 0 1
461 33 13 0.03 7.603307354640306 9.18946354097228 36.422251566950976 0 1 -1
452 33 4 0.14 9.572507897291562 9.17253650515282 37.33812942688763 0 1 -1
3934 281 14 0.03 2.7079676296583433 11.963061154318027 34.973165186299084 3 1 -1
862 62 8 0.03 8.503993645848993 3.901395905583633 36.484424531605335 0 2 -1
2018 145 2 0.14 2.243024341445185 4.9878832743446715 33.160622276264675 0 -2 0
7098 507 14 0.03 1.9750938898809447 4.988776467098404 36.2334878923833 -1 -1 0
453 33 5 0.14 8.050759031113488 9.4760103146937 37.36397374505221 0 1 -1
868 62 14 0.03 5.236183750136011 5.230267698669862 36.753077211812595 0 2 -1
863 62 9 0.03 8.507053663064582 2.8011435304134467 34.222405987759174 0 2 -1
860 62 6 -0.4 7.0975275670447395 5.255691201951075 35.95561339527468 0 2 -1
855 62 1 0.14 8.194955070573588 4.445075989722417 35.58282023655434 0 2 -1
861 62 7 0.03 9.061292853153162 5.034239918433151 35.35071337358701 0 2 -1
451 33 3 -0.4 9.7165709566205 7.731344010913132 37.30914915065645 0 1 -1
2260 162 6 -0.4 11.323086612252885 4.508737454227527 36.80130849790291 1 2 1
1082 78 4 0.14 1.97876816157194 8.499072473512022 36.86280804787334 -1 0 1
4192 300 6 -0.4 8.669102438378673 9.90808112299573 33.44419764190981 -2 1 1
4199 300 13 0.03 8.82462901879418 8.469395951545163 34.725798048607125 -2 1 1
4194 300 8 0.03 10.65831019463133 9.72590612085118 34.00866040491083 -2 1 1
459 33 11 0.03 10.05414735410611 9.696078847912633 36.46834997876392 0 1 -1
3933 281 13 0.03 2.9500654900528813 10.545421267738853 33.992290710174245 3 1 -1
865 62 11 0.03 4.637405683861234 3.0982780882419094 35.61091170432701 0 2 -1
1080 78 2 0.14 4.269621576368405 8.729674132796639 37.03885493181197 -1 0 1
462 33 14 0.03 7.831342758995717 10.527001132349147 37.42938851298901 0 1 -1
1088 78 10 0.03 4.259084004351397 9.03218414055985 35.96157836645968 -1 0 1
4187 300 1 0.14 10.054288243454117 9.917901019399137 33.12761942773956 -2 1 1
1081 78 3 -0.4 3.1873680686101444 7.883115898164224 37.20740499599481 -1 0 1
2027 145 11 0.03 4.260959578259586 7.288624023204119 34.33663401513172 0 -2 0
859 62 5 0.14 5.959310461234753 4.5191860259086045 36.37786651528132 0 2 -1
4191 300 5 0.14 8.236820657296573 8.689994330066355 33.83173413742662 -2 1 1
1079 78 1 0.14 4.158237743218066 9.956216326630388 37.98155355873861 -1 0 1
2019 145 3 -0.4 3.113655715998469 5.605285147982102 34.11704170218921 0 -2 0
4197 300 11 0.03 8.332203443335292 6.660652283456531 33.33643864428667 -2 1 1
857 62 3 -0.4 6.592381798047826 2.770067161799046 34.910242244665156 0 2 -1
2261 162 7 0.03 11.311756381558478 4.456036169181179 34.745010006374855 1 2 1
858 62 4 0.14 5.51500844269352 3.6374747165425063 35.23582706340636 0 2 -1