LAMMPS data file via write_data, version 29 Sep 2021, timestep = 1000000

5103 atoms
7 atom types
4374 bonds
6 bond types
5832 angles
8 angle types
4374 dihedrals
6 dihedral types
1458 impropers
2 improper types

1.5073875442600553 41.49261245571852 xlo xhi
1.5073875442600553 41.49261245571852 ylo yhi
1.5073875442600553 41.49261245571852 zlo zhi

Masses

1 15.999
2 12.011
3 32.06
4 1.008
5 1.008
6 1.008
7 1.008

Pair Coeffs # lj/cut/coul/long/omp

1 0.17 3.12
2 0.066 3.5
3 0.425 3.6
4 0 0
5 0.03 2.5
6 0.03 2.5
7 0 0

Bond Coeffs # harmonic/omp

1 320 1.41
2 222 1.81
3 553 0.945
4 340 1.09
5 340 1.09
6 274 1.336

Angle Coeffs # harmonic/omp

1 51.65 110.58
2 55 108.5
3 35 109.5
4 35 109.5
5 44 96
6 33 107.8
7 35 109.5
8 35 109.5

Dihedral Coeffs # opls/omp

1 0 0 0.352 0
2 0 0 0.48 0
3 0 0 0.48 0
4 0 0 0.48 0
5 0 0 0.45 0
6 0 0 0.45 0

Improper Coeffs # cvff/omp

1 0 -1 2
2 0 -1 2

Atoms # full

3489 499 3 -0.2352 7.281076575620469 8.93000861696515 3.6808486354080103 1 0 1
914 131 4 0.4167 5.743953420562854 11.424044503241504 2.5925556436551966 0 -1 0
4398 629 2 0.0195 2.282148831055836 5.891021821139428 5.14681857835306 1 2 2
4403 629 7 0.1707 4.100438073036185 5.079438667288834 3.944003468565096 1 2 2
3492 499 6 0.104 8.906312413838627 10.604963861139291 3.896581369206461 1 0 1
4699 672 2 0.0195 6.374329259353657 4.970309742671255 4.817325664291069 0 0 0
2983 427 1 -0.5797 10.363617562185171 7.673000998827583 4.7627441510373885 1 0 0
4401 629 5 0.104 2.9265709297822617 5.889084575002861 5.9877216998202005 1 2 2
2930 419 4 0.4167 7.338133072911064 3.554548968889621 2.5839341559719733 0 -2 2
4702 672 5 0.104 5.560349137174359 5.492027888582864 4.2346180604549994 0 0 0
2988 427 6 0.104 10.169349190321118 8.571650686582263 2.8717164447451773 1 0 0
4402 629 6 0.104 2.3185575489510333 6.902125690724147 4.761658116855048 1 2 2
3923 561 3 -0.2352 11.338607925682458 3.4540489016492977 5.17824510065351 1 1 0
2984 427 2 0.0195 10.583164296253457 7.6798070292825855 3.397772035357561 1 0 0
3921 561 1 -0.5797 9.512248881326043 4.956948616645661 6.297035601237368 1 1 0
1802 258 3 -0.2352 3.7704754493507147 8.366490169820773 2.1597525912315887 1 1 1
1806 258 7 0.1707 4.035506666601554 9.652538857208615 2.2970542389010458 1 1 1
4698 672 1 -0.5797 7.320022574262445 4.839495395211612 3.80890038101906 0 0 0
1830 262 3 -0.2352 4.536106707650783 8.977690153807075 5.8785895512559465 1 1 1
3488 499 2 0.0195 7.881617994538195 10.559720854019842 4.2200889567727895 1 0 1
916 131 6 0.104 3.0322083747633317 11.482404020973345 2.94283091390761 0 -1 0
3493 499 7 0.1707 8.215454714346285 8.136996974074677 4.250427142056805 1 0 1
2985 427 3 -0.2352 10.017308529969966 6.077846451909502 2.679352950152652 1 0 0
3924 561 4 0.4167 10.059035731244114 5.689185375459361 5.933728630237767 1 1 0
2928 419 2 0.0195 6.001278365140279 2.6521105252435433 1.7120311915014992 0 -2 2
2927 419 1 -0.5797 7.367343350328474 2.936808478419877 1.8903131448746917 0 -2 2
4703 672 6 0.104 6.6923040049026055 5.757428668683014 5.5517478428877745 0 0 0
4700 672 3 -0.2352 5.800585411223852 3.3633872837321026 5.6122890093502535 0 0 0
1834 262 7 0.1707 5.68561615505113 9.007146201191873 5.130101359437183 1 1 1
3491 499 5 0.104 7.823128674156741 10.545330053854212 5.31146728269731 1 0 1
4399 629 3 -0.2352 2.8067678310978432 4.944309657447428 3.764924326272858 1 2 2
1914 274 3 -0.2352 1.6567227058899523 2.1076112208835833 6.011164484858648 0 1 2
2986 427 4 0.4167 10.792788718994 8.454754127230807 5.096380485319725 1 0 0
4701 672 4 0.4167 8.147633487808118 5.135961807888386 4.126194314467823 0 0 0
2932 419 6 0.104 5.674660227117873 1.9807693836865283 2.5206763430221755 0 -2 2
911 131 1 -0.5797 4.980349632994395 11.47357095102499 1.9825793432761778 0 -1 0
2931 419 5 0.104 5.375758394593115 3.510759735028081 1.8704077966091963 0 -2 2
1918 274 7 0.1707 1.9860126696418017 3.422001052995604 5.9539846625101625 0 1 2
264 38 5 0.104 10.036784195551446 1.5298223213253226 2.2330665945767927 0 1 -1
4704 672 7 0.1707 4.855034339471684 4.033314308946906 6.234240868217162 0 0 0
1596 228 7 0.1707 5.6489887328065524 8.28112666397089 9.856728400465379 0 1 -1
1180 169 4 0.4167 8.582813521235208 5.462795559906725 7.851079625588553 0 1 2
1179 169 3 -0.2352 10.54308235565169 6.330753185421178 9.651220157583715 0 1 2
1833 262 6 0.104 4.415280742177217 9.23193771073297 8.248743075172731 1 1 1
1831 262 4 0.4167 5.606671233517383 7.470749048216175 7.810734421359912 1 1 1
1408 202 1 -0.5797 5.138997391485766 5.938118982108813 8.409068889386653 0 0 -1
4032 576 7 0.1707 8.653190119612027 1.747859144551797 9.147159298556339 0 0 1
1410 202 3 -0.2352 2.8010424784680925 6.68545155278154 8.933748607654733 0 0 -1
1413 202 6 0.104 3.8779482522974806 4.608170734583714 9.245810304371222 0 0 -1
1141 163 7 0.1707 9.775134637792355 11.112999948234373 8.02330142061849 0 0 -1
4029 576 4 0.4167 7.487764081118325 4.650363751844736 9.877568797833773 0 0 1
4030 576 5 0.104 6.623095727191811 2.6520880578778794 9.643113993976424 0 0 1
1414 202 7 0.1707 2.066156955515887 6.458387254585745 10.024404960563754 0 0 -1
3925 561 5 0.104 10.002039230605538 3.0689985324847617 7.117438021786342 1 1 0
4026 576 1 -0.5797 7.123212310388131 4.308395391168055 10.68872133818701 0 0 1
1181 169 5 0.104 8.26647478069928 6.780919772495586 10.341717545047635 0 1 2
1137 163 3 -0.2352 10.0216116991968 10.038714290583197 7.211376625157252 0 0 -1
4027 576 2 0.0195 7.253846426627025 2.92287042094196 10.520892906224569 0 0 1
1177 169 1 -0.5797 8.095924603506056 5.715143143923596 8.65995619405756 0 1 2
1178 169 2 0.0195 8.816214867711535 6.741087786171915 9.344513625919044 0 1 2
4028 576 3 -0.2352 8.954151054441876 2.529203756612609 10.148661418809867 0 0 1
1409 202 2 0.0195 4.151970342524196 5.624728068393804 9.34174394348041 0 0 -1
1182 169 6 0.104 8.72719869409378 7.692406077214442 8.75816603223647 0 1 2
1591 228 2 0.0195 7.097158980674578 10.134528575307872 10.599958010669228 0 1 -1
1183 169 7 0.1707 11.194320023895985 7.48124564880403 9.796763180073615 0 1 2
1832 262 5 0.104 5.6639784313557495 10.206355325344365 7.42701977014801 1 1 1
1411 202 4 0.4167 6.014568679638843 5.902731097478188 8.84423252640581 0 0 -1
1590 228 1 -0.5797 6.143569277307012 11.221979178421615 10.57007807885703 0 1 -1
1913 274 2 0.0195 1.576743326641068 2.122040897356418 7.804807323557007 0 1 2
4031 576 6 0.104 6.878760051532165 2.3998805977769684 11.380912731559492 0 0 1
1594 228 5 0.104 7.8473246503229035 10.47080174567275 11.28522924301281 0 1 -1
1828 262 1 -0.5797 6.136705406438786 8.24660893772586 7.718805037959256 1 1 1
1595 228 6 0.104 7.678846873048838 9.943854073354506 9.708590532950614 0 1 -1
1829 262 2 0.0195 5.23027822764883 9.21701779598602 7.476160122145567 1 1 1
1412 202 5 0.104 4.475776597860733 5.714335574245355 10.37464549552074 0 0 -1
1592 228 3 -0.2352 6.226733847642301 8.648796403515977 10.968793390812927 0 1 -1
3922 561 2 0.0195 10.440824106302806 4.019330257075881 6.668424357943203 1 1 0
3926 561 6 0.104 11.174601550525345 4.331725957680338 7.373376376298566 1 1 0
1998 286 3 -0.2352 3.1274558222729656 11.122772380524072 11.050568587677118 0 2 1
1912 274 1 -0.5797 2.678740639122112 1.6462702068919912 8.428821421195169 0 1 2
1915 274 4 0.4167 2.3962416066730308 1.575958193499659 9.36886026177649 0 1 2
396 57 4 0.4167 4.527171429864588 3.046863445656236 15.021151081925412 0 0 1
4839 692 2 0.0195 5.47042646863148 10.369645050225124 14.15406923830559 1 1 2
1231 176 6 0.104 7.143634496857707 6.930917685806114 16.21726590122135 0 -1 1
4840 692 3 -0.2352 7.0369568497868205 9.72791684443804 14.973748406852652 1 1 2
4842 692 5 0.104 4.9720638351455175 9.732427416480675 13.374333839679613 1 1 2
394 57 2 0.0195 5.481934061960203 4.124045939523981 13.735753066096557 0 0 1
2327 333 3 -0.2352 2.9379088958239947 3.378079798856888 11.886798883647637 1 0 0
2586 370 3 -0.2352 10.603429749567052 6.472603582949923 16.093652290545563 0 -1 0
2218 317 6 0.104 8.444551549713047 2.943886169979029 13.430764129708885 1 2 -1
2585 370 2 0.0195 10.1429415250654 5.896275639273988 14.454311589347567 0 -1 0
2588 370 5 0.104 10.871479804841067 6.449224213308177 13.797114295355685 0 -1 0
2216 317 4 0.4167 7.931270263218046 2.798346827882 15.617441811251735 1 2 -1
2326 333 2 0.0195 1.8745180231604697 1.94267530613802 12.183811915376184 1 0 0
2217 317 5 0.104 10.064863285335809 2.281262915704977 13.717868392340023 1 2 -1
397 57 5 0.104 5.794638745276275 3.3629544338940978 12.997915310215793 0 0 1
4843 692 6 0.104 4.710299770586337 10.739353167882404 14.785493107616583 1 1 2
4844 692 7 0.1707 7.452985993444445 9.02604243357123 13.85730105405198 1 1 2
3702 529 6 0.104 3.2920453177648774 7.730306170732594 12.241171737710715 1 0 0
393 57 1 -0.5797 4.387362796407482 3.877218339709039 14.51982440528569 0 0 1
398 57 6 0.104 6.345581782374274 4.2012903590215736 14.470459858572038 0 0 1
2589 370 6 0.104 10.314851172989941 4.877403280606597 14.288002233286896 0 -1 0
395 57 3 -0.2352 5.320313472062956 5.76631297166367 12.92151023268761 0 0 1
2214 317 2 0.0195 9.043289069079348 2.2345924751045776 14.106223434918194 1 2 -1
1996 286 1 -0.5797 1.7389973509356427 11.05074654146414 13.238259082174414 0 2 1
3703 529 7 0.1707 2.8335765693723935 5.871448707786511 13.633652259175228 1 0 0
399 57 7 0.1707 6.588500576315889 5.679478026371578 12.36312608761514 0 0 1
2213 317 1 -0.5797 8.835551034480465 2.9040974136757356 15.337784031600041 1 2 -1
899 129 3 -0.2352 10.134383579925808 8.99533066739775 12.372564272383132 0 1 0
2587 370 4 0.4167 8.384141387645972 5.69712424002454 13.414513733859541 0 -1 0
2584 370 1 -0.5797 8.742271332690883 6.165671179421514 14.151375739076165 0 -1 0
1229 176 4 0.4167 8.380415618160356 5.193235625580387 15.996793758373125 0 -1 1
3700 529 4 0.4167 1.6784697061804674 9.646716921305446 12.267549245201618 1 0 0
4276 611 6 0.104 2.5966601328478296 7.573265617941597 16.404917209702155 0 2 0
2331 333 7 0.1707 3.32823157122127 3.5736322989642533 13.12056476529124 1 0 0
3698 529 2 0.0195 2.3774940458289846 7.8737649099213955 12.744190306623503 1 0 0
1230 176 5 0.104 5.895962301267686 5.5172090648610626 16.254485717141073 0 -1 1
903 129 7 0.1707 10.011778824245305 7.909634527231757 11.633076792239521 0 1 0
2227 319 1 -0.5797 4.995981084886678 1.7608312914469328 16.413516616477324 0 2 0
3701 529 5 0.104 2.62995487794036 8.33345997116024 13.682055397397738 1 0 0
3699 529 3 -0.2352 1.6547687116214531 6.28675949391249 13.213285582303897 1 0 0
4838 692 1 -0.5797 5.971195945419859 11.481636975326651 13.471738299917138 1 1 2
4277 611 7 0.1707 1.7292182560908342 4.902704324472706 16.171493069524697 0 2 0
174 25 6 0.104 11.362247818899837 10.785729493958197 15.484263538074115 1 0 1
3625 518 6 0.104 11.039063256202393 3.5359768113083465 17.627362871014913 0 0 0
2230 319 4 0.4167 5.451747922337082 1.9482369702816351 17.22750215947676 0 2 0
850 122 3 -0.2352 3.045407335008898 9.564707925773119 20.76426341158498 0 1 0
1232 176 7 0.1707 6.1156717759698935 7.754441112494884 18.209229404880098 0 -1 1
4726 676 1 -0.5797 2.241716924764648 4.745210474867111 19.51832593004797 1 1 -1
4884 698 5 0.104 9.05598042148429 6.34999927390338 20.868452697587873 1 1 -1
3620 518 1 -0.5797 11.210319951113137 2.6200378997511584 19.52508724830259 0 0 0
4731 676 6 0.104 3.825360229388714 4.160019442375072 18.36381053035061 1 1 -1
4275 611 5 0.104 3.4790896816331554 6.113593946727318 16.74533832631287 0 2 0
4881 698 2 0.0195 10.04687257143242 6.066010013798436 20.56201221952095 1 1 -1
175 25 7 0.1707 10.476670155206666 8.893358227999657 16.668032062176472 1 0 1
4727 676 2 0.0195 3.556087013124034 4.31727912216269 19.385140659543584 1 1 -1
3944 564 3 -0.2352 6.289715614114011 10.128773863392595 18.37572933312834 1 -1 0
4387 627 5 0.104 8.419449053609636 2.2211899970063236 17.689005017019987 0 -1 0
4729 676 4 0.4167 2.2710040930171034 5.705035439921339 19.469357111166797 1 1 -1
4883 698 4 0.4167 9.153419761078766 5.77415671703701 18.762991270875514 1 1 -1
3947 564 6 0.104 8.340410487248528 10.267828082679623 19.77647376910557 1 -1 0
3948 564 7 0.1707 6.570646404403496 11.334449011010852 17.879817516637733 1 -1 0
4383 627 1 -0.5797 6.478441826630533 2.779303816594354 18.30882236023806 0 -1 0
4885 698 6 0.104 10.682673030235106 6.938671397514018 20.588050382895133 1 1 -1
4384 627 2 0.0195 7.6633080112583905 1.970003624195408 18.44349852380122 0 -1 0
3623 518 4 0.4167 11.037086143207578 3.513356823673526 19.90412147110032 0 0 0
4271 611 1 -0.5797 2.78525489095047 7.188406329396734 18.3930985035242 0 2 0
1228 176 3 -0.2352 6.3040574038166115 6.50949464791265 18.476600842045467 0 -1 1
4732 676 7 0.1707 4.771680692005796 2.2081266776240622 19.86071121152322 1 1 -1
3943 564 2 0.0195 7.251939054008631 10.193570070646322 19.917369062201313 1 -1 0
1226 176 1 -0.5797 7.881521374477194 5.158852407004932 16.820234439816254 0 -1 1
4386 627 4 0.4167 6.565327223877321 3.57808758193275 18.805708984685715 0 -1 0
4385 627 3 -0.2352 8.26483011723224 2.2219822706712273 20.190623714835542 0 -1 0
1227 176 2 0.0195 6.7478075322193085 6.040186720332297 16.752565554049482 0 -1 1
4274 611 4 0.4167 2.7565587469062693 8.13852496259043 18.354636689334512 0 2 0
4272 611 2 0.0195 2.6046833701183267 6.737393047340976 17.054769800424594 0 2 0
854 122 7 0.1707 4.321291022357656 9.882643636915635 20.516881677875066 0 1 0
4730 676 5 0.104 4.350520431268352 4.93682196038397 19.809826821460078 1 1 -1
4880 698 1 -0.5797 9.93113677818395 5.47828106467569 19.243810203901585 1 1 -1
3942 564 1 -0.5797 6.651349026378384 11.103433967414476 20.77982234678467 1 -1 0
171 25 3 -0.2352 10.647758279361998 9.950566087534611 17.423878560958084 1 0 1
848 122 1 -0.5797 2.033238797001991 10.008826262465412 18.31336322106873 0 1 0
2590 370 7 0.1707 10.664742851895175 5.255942810565273 16.627617608906135 0 -1 0
849 122 2 0.0195 2.175519813355943 10.640171234722517 19.591413944790002 0 1 0
4728 676 3 -0.2352 3.6505718046023747 2.6946277006494053 20.296947313962615 1 1 -1
3946 564 5 0.104 7.064586532121542 9.222287079602054 20.482332519786816 1 -1 0
3626 518 7 0.1707 9.939198470449048 1.834308566586564 16.858750097181172 0 0 0
2805 401 5 0.104 11.294427348303937 10.845637157976872 20.317729477290484 0 1 0
4389 627 7 0.1707 9.53156356693356 1.9279004793858734 19.807347085028706 0 -1 0
853 122 6 0.104 2.8239453024942174 11.491716427281743 19.532113767301812 0 1 0
2386 341 6 0.104 5.409353607264977 6.124850699660107 24.22002624786788 0 -1 0
4734 677 2 0.0195 4.917949609078869 2.5472857384612153 23.79069967277855 -1 1 -1
2381 341 1 -0.5797 7.071167831123662 5.112324153976516 24.625200312784475 0 -1 0
2733 391 3 -0.2352 5.07357744587998 9.407768951908153 24.470621503212417 0 1 -1
4738 677 6 0.104 4.02984171525889 1.8402228858372702 23.801454117769925 -1 1 -1
2383 341 3 -0.2352 6.653895050995554 5.89946824581509 22.109118125315852 0 -1 0
2384 341 4 0.4167 7.483195291888539 5.481820918523324 25.3563261776667 0 -1 0
2382 341 2 0.0195 6.463533924109936 6.138533496373562 23.849295896750238 0 -1 0
3766 538 7 0.1707 2.7041983546029673 5.109969741512176 21.929415155800424 1 1 0
3712 531 2 0.0195 9.436130634324085 9.730997174348193 24.422234154621908 2 1 2
2732 391 2 0.0195 4.6810548518472945 10.240421275400681 26.053082731703494 0 1 -1
2385 341 5 0.104 6.9316294785216455 7.09390143266898 24.09103172386839 0 -1 0
1025 147 3 -0.2352 9.877366822772904 4.234673778562093 26.09973424661282 1 1 0
4735 677 3 -0.2352 6.50652114313384 1.772868801520454 24.34707360691414 -1 1 -1
3714 531 4 0.4167 10.810677123061017 11.148878440850542 25.004826674814247 2 1 2
3717 531 7 0.1707 9.43826320679361 7.540297050575786 23.610417700967837 2 1 2
3945 564 4 0.4167 7.181819680262924 11.12723976765002 21.6012628857047 1 -1 0
3760 538 1 -0.5797 2.8095842097860824 6.799559686395733 25.177938918725093 1 1 0
3761 538 2 0.0195 2.2905902410952255 5.887008196027223 24.264059898497145 1 1 0
3713 531 3 -0.2352 9.204278136145017 8.669826335720646 23.000365838807998 2 1 2
3711 531 1 -0.5797 10.662939241038686 10.452263561313655 24.348001141227336 2 1 2
4733 677 1 -0.5797 4.713955652247767 3.6245725976899568 24.648613707487108 -1 1 -1
3715 531 5 0.104 8.678706395673856 10.571783696308348 24.432357145640946 2 1 2
4882 698 3 -0.2352 10.724568545500901 4.834357708321821 21.652753520405582 1 1 -1
2737 391 7 0.1707 3.7773306546019736 9.369140219964438 23.990440242252614 0 1 -1
3763 538 4 0.4167 2.7943191738071995 6.372128693811294 26.04967727302158 1 1 0
3716 531 6 0.104 9.36705160379007 9.151476980847448 25.380373063415632 2 1 2
3762 538 3 -0.2352 3.073459387285534 6.241602004403052 22.611541238160868 1 1 0
3765 538 6 0.104 2.565768245553061 4.927800587157947 24.635777875373183 1 1 0
1939 277 7 0.1707 1.879653894862729 8.137935536260738 24.80556391152469 0 0 -1
4737 677 5 0.104 4.985873266246216 2.940133702527719 22.758701918844096 -1 1 -1
4736 677 4 0.4167 5.4812606338312495 4.189472401913088 24.47717861963386 -1 1 -1
2212 316 7 0.1707 10.351375635532271 2.1487533403030703 24.704387037272504 0 1 0
4886 698 7 0.1707 9.998360269432998 5.057712274833083 22.789903428580637 1 1 -1
2387 341 7 0.1707 6.086386365003775 6.977079373311071 21.611616887382535 0 -1 0
2735 391 5 0.104 3.6898208737597 9.912174819169497 26.2725859286048 0 1 -1
1428 204 7 0.1707 1.864710745217526 3.105308682597667 21.810253611192458 -1 -1 -1
3686 527 4 0.4167 3.800089095550435 8.542033559525677 30.245076554042168 1 1 -1
4366 624 5 0.104 5.517754969932329 3.434549248698543 28.58350143574651 -1 1 0
744 107 2 0.0195 8.67713155652509 8.952341992779257 28.721176827843703 0 -1 1
3753 537 1 -0.5797 2.5045082834306345 2.1510950128188737 28.141672508237853 3 1 1
3756 537 4 0.4167 2.291287751280895 3.098704912063094 28.30776194976217 3 1 1
747 107 5 0.104 8.244299081991048 8.73036991133974 29.655557064486015 0 -1 1
2706 387 4 0.4167 2.332585206419264 10.684201097470341 29.578857498496912 1 1 0
540 78 1 -0.5797 5.18324244625855 7.679052038699762 31.08336481834058 0 2 0
4364 624 3 -0.2352 7.743679134814429 2.430631363307726 28.521494790087257 -1 1 0
3166 453 2 0.0195 3.974812601846285 5.897082463485697 28.55518380326215 0 -1 -1
1026 147 4 0.4167 8.024710114848759 6.108105859581453 28.1164786690699 1 1 0
3165 453 1 -0.5797 3.414239372524017 5.010828135095932 27.56247953308259 0 -1 -1
3170 453 6 0.104 3.1790020918533415 6.575411481957092 28.968895302032074 0 -1 -1
3629 519 3 -0.2352 7.549735329713482 5.221370686283011 30.687090872790336 1 1 -1
544 78 5 0.104 5.389923024297838 9.748291125605059 31.005065604316876 0 2 0
3683 527 1 -0.5797 3.0024270960978896 8.947630967176455 29.87610395997655 1 1 -1
3167 453 3 -0.2352 5.23989840069852 6.86244269933604 27.636400388548484 0 -1 -1
4367 624 6 0.104 5.934786566011674 2.880715561586945 27.011182120361656 -1 1 0
745 107 3 -0.2352 8.799736801250047 10.688659828466978 28.106113973695848 0 -1 1
3169 453 5 0.104 4.478181518234377 5.292585783518669 29.352355911538428 0 -1 -1
2736 391 6 0.104 5.232518637196435 9.830288385050844 26.94916102759472 0 1 -1
743 107 1 -0.5797 9.891913674678227 8.310676288161009 28.660012350455624 0 -1 1
3633 519 7 0.1707 8.875908700100304 4.848002177155823 30.9637385432015 1 1 -1
1029 147 7 0.1707 10.878248340649375 3.709533193289561 26.7903165965224 1 1 0
4368 624 7 0.1707 8.178018967601535 3.7190325142030205 28.185927115630264 -1 1 0
5033 719 7 0.1707 4.479348659566521 2.4666470606279196 31.03526572988552 0 0 0
2610 373 6 0.104 10.60211226791864 2.8838450315543405 30.948966319723013 0 0 -1
748 107 6 0.104 7.935792392903671 8.465324532742855 28.06498502627762 0 -1 1
4363 624 2 0.0195 6.033123684122447 2.633461048915011 28.034626003769247 -1 1 0
3688 527 6 0.104 2.130853831087126 7.938512162598987 31.464192123765965 1 1 -1
746 107 4 0.4167 10.565446223190262 8.838971026414628 29.042110497547377 0 -1 1
3171 453 7 0.1707 5.215149688742272 7.90346385552178 28.457677320238002 0 -1 -1
1027 147 5 0.104 10.114198453699627 5.092474851361957 28.22865452565008 1 1 0
3684 527 2 0.0195 1.8657604597318815 8.629754500009753 30.71256833103025 1 1 -1
1024 147 2 0.0195 9.606124371951632 5.438943953621989 27.331455147624233 1 1 0
3168 453 4 0.4167 4.146287985596064 4.510829156121636 27.09048562067788 0 -1 -1
3758 537 6 0.104 2.419727955984027 1.8443373629072337 30.023787455480356 3 1 1
567 81 7 0.1707 11.061229383404683 11.442668505516396 28.366447605283486 1 0 1
1023 147 1 -0.5797 8.238005930564977 5.561272139408064 27.398976153074525 1 1 0
1028 147 6 0.104 10.036920691826495 6.421358553722133 27.09467902712205 1 1 0
2611 373 7 0.1707 10.269268984117291 1.9773280917527902 28.698546259316096 0 0 -1
749 107 7 0.1707 7.5305092461271625 10.918030324950795 28.24943670245128 0 -1 1
2674 382 7 0.1707 2.6766005315142176 4.774492688209469 30.404189205390708 0 0 1
2246 321 6 0.104 1.7340080712988428 9.649908691485647 35.06278208816039 1 0 0
2060 295 2 0.0195 5.766227923723683 3.5693819847034174 36.07891976221522 0 -1 -1
1297 186 2 0.0195 11.00664755866725 8.755026782852294 33.37423438194075 0 0 -1
922 132 5 0.104 10.655924187728061 1.5628331330883278 35.551054912904604 0 1 -1
3632 519 6 0.104 8.043348645013968 6.480634601203625 32.55466520184288 1 1 -1
3628 519 2 0.0195 7.425331748366002 5.551814738555562 32.38878831097494 1 1 -1
5032 719 6 0.104 6.7213583841955025 2.5738581982614335 31.72105879343973 0 0 0
546 78 7 0.1707 6.019360971524124 8.018791890940918 33.76882375821678 0 2 0
297 43 3 -0.2352 3.476551055314906 6.530279377462391 35.37591690503618 0 1 0
2670 382 3 -0.2352 3.2074316069890294 5.138930855421821 31.64815434588408 0 0 1
5030 719 4 0.4167 6.236709351877688 2.1568413742243946 34.15179466966741 0 0 0
545 78 6 0.104 6.628611024418822 8.725362099981123 31.710169949960058 0 2 0
2059 295 1 -0.5797 5.319222654355782 3.5303276305924776 34.75025117076052 0 -1 -1
2668 382 1 -0.5797 2.7090537083252526 3.481411406579574 33.586453065639994 0 0 1
3630 519 4 0.4167 5.7972420865875955 4.975583902289012 33.19646689062968 1 1 -1
2061 295 3 -0.2352 6.7785057047745525 4.973473667902666 36.286624196581876 0 -1 -1
2716 388 7 0.1707 9.831135982691366 5.197058807354373 34.96499838175107 -1 1 -2
542 78 3 -0.2352 5.024323477309454 8.925442475893671 33.404249265289494 0 2 0
2671 382 4 0.4167 2.284871414415957 2.6555043586078204 33.71267788258809 0 0 1
2062 295 4 0.4167 4.374720515756907 3.419868776428391 34.65853275388831 0 -1 -1
3983 569 7 0.1707 11.22808190871058 8.041465849833553 35.91478211576759 1 -2 -2
5028 719 2 0.0195 6.3766707313488835 1.6361359821956736 32.21992990086307 0 0 0
4292 614 1 -0.5797 8.690949771561638 11.139199390281096 34.73277623328029 0 0 -1
3627 519 1 -0.5797 6.141971843687575 5.787015367257724 32.852307051193364 1 1 -1
4295 614 4 0.4167 7.9788045941833605 11.105709251289536 35.40983350630298 0 0 -1
5027 719 1 -0.5797 6.660445565257144 1.5230887574873953 33.61594965081698 0 0 0
541 78 2 0.0195 5.604974408168445 8.871627700647737 31.678108180164358 0 2 0
1298 186 3 -0.2352 9.890228177317564 8.829514319813399 32.023630815744355 0 0 -1
2243 321 3 -0.2352 1.9123729613787042 11.466807949248151 33.259729460441235 1 0 0
2712 388 3 -0.2352 10.220978479174159 4.350896924206353 34.03376925943528 -1 1 -2
301 43 7 0.1707 3.9140509423402925 7.361959627971015 34.438128577045454 0 1 0
1302 186 7 0.1707 9.212359863685169 9.894323699480667 32.489595136316964 0 0 -1
1301 186 6 0.104 10.573677404112985 8.343295861415179 34.28321325060117 0 0 -1
2669 382 2 0.0195 2.03137366338314 4.1704799535039925 32.59137388891296 0 0 1
1300 186 5 0.104 11.137590280652127 9.764246952089241 33.55787081817795 0 0 -1
3631 519 5 0.104 7.915927671330473 4.65133386656435 32.76232866306036 1 1 -1
2063 295 5 0.104 6.244567212591925 2.630764217252259 36.37345334458992 0 -1 -1
543 78 4 0.4167 5.579523975312411 6.887314587572801 31.531991133201437 0 2 0
2673 382 6 0.104 1.5628279391253077 3.4256487463713556 31.858072862952465 0 0 1
1805 258 6 0.104 3.1471245702301345 7.967924350824871 39.941030883504695 1 1 0
3980 569 4 0.4167 9.103799219995608 5.953998073521802 39.04710727554784 1 -2 -2
575 83 1 -0.5797 7.353400239162867 4.8039426100890825 39.4007161260648 0 0 -1
577 83 3 -0.2352 6.440866966494852 7.258312962185244 39.13771997836171 0 0 -1
3978 569 2 0.0195 9.873695118553071 6.704087337428481 37.440852248570096 1 -2 -2
1745 250 2 0.0195 1.8835557345642902 1.745725757324368 41.059332577131585 -1 0 0
579 83 5 0.104 6.36457228700339 5.652170988890624 41.096897186394045 0 0 -1
580 83 6 0.104 5.332182240914134 5.16466799987689 39.758388714952986 0 0 -1
284 41 4 0.4167 7.788007123060862 9.927568573333208 38.66226940843031 -1 1 -1
3538 506 3 -0.2352 2.075800305315588 3.9208647209556617 38.00841636891655 0 0 0
296 43 2 0.0195 3.5354216149178885 7.536422291424144 36.86955502026527 0 1 0
295 43 1 -0.5797 2.839634994545469 6.879631286600729 37.875898325447494 0 1 0
3542 506 7 0.1707 1.815767471856036 5.224774723970107 37.74977187107675 0 0 0
576 83 2 0.0195 6.325221952848118 5.611434397796314 39.97072963173482 0 0 -1
1801 258 2 0.0195 2.7237093416369387 8.583415195738073 40.746132675794804 1 1 0
4409 630 6 0.104 3.900271715471625 10.971580525245134 38.676712466163494 1 0 0
282 41 2 0.0195 9.71539732956269 10.232826783341872 38.580343088187185 -1 1 -1
2065 295 7 0.1707 6.904511247884131 4.795850815402258 37.69073288153306 0 -1 -1
1747 250 4 0.4167 2.374656477516366 1.6908188426484445 39.13490585511196 -1 0 0
578 83 4 0.4167 7.267817146567566 4.0016113428907225 39.878234614020805 0 0 -1
286 41 6 0.104 10.61135487180069 9.668568127799412 38.20048633472009 -1 1 -1
283 41 3 -0.2352 9.58746668087556 10.140679966278991 40.39854508709677 -1 1 -1
4406 630 3 -0.2352 5.471986138305661 10.982634613211843 36.81115750885423 1 0 0
1804 258 5 0.104 3.00540600208097 9.56512532619326 40.32860042411561 1 1 0
2929 419 3 -0.2352 5.66040743766038 1.8828729688945403 40.05374584826667 0 -2 1
1316 188 7 0.1707 8.362129251053375 2.891692031341315 38.06564923496924 -1 2 1
300 43 6 0.104 3.083968151235495 8.41161254541265 36.6080181890282 0 1 0
581 83 7 0.1707 6.144555144597114 7.814260889877724 40.33358677239965 0 0 -1
3977 569 1 -0.5797 10.007390114186581 6.093010060790835 38.73858387747521 1 -2 -2
1312 188 3 -0.2352 9.533927317924745 2.3344224939793854 38.31219799101124 -1 2 1
298 43 4 0.4167 1.9190415434594752 7.202299449183524 37.764968508571364 0 1 0
287 41 7 0.1707 9.402659481420041 8.820422400763007 40.59138637770852 -1 1 -1
281 41 1 -0.5797 8.542622146126606 9.914236077666965 38.035444231753694 -1 1 -1
2064 295 6 0.104 4.909138116741147 3.6194219418845623 36.71259883707579 0 -1 -1
3981 569 5 0.104 9.139449192095602 7.50125851696191 37.343903050455836 1 -2 -2
3982 569 6 0.104 9.453672898659445 5.916739827841974 36.75256830696736 1 -2 -2
4405 630 2 0.0195 4.961540459443733 11.336239286887418 38.47330121788801 1 0 0
1749 250 6 0.104 2.2481999645963326 2.7870249913478995 41.30457023588111 -1 0 0
4407 630 4 0.4167 5.4979586078033025 10.871981016068421 40.19849927318415 1 0 0
285 41 5 0.104 9.896711505286476 11.300463900303367 38.55658901829247 -1 1 -1
2989 427 7 0.1707 10.274369458440196 6.1357741331103695 41.319759812560164 1 0 -1
299 43 5 0.104 4.569499792344303 7.541458901699821 37.18314077951349 0 1 0
4404 630 1 -0.5797 5.87840245660463 10.831924845634349 39.37296408733028 1 0 0
3141 449 5 0.104 3.051563273931718 18.392493541684722 3.8167454532283425 -1 -2 2
3487 499 1 -0.5797 7.017775672025371 11.554317059668218 3.7595250913545133 1 0 1
4308 616 3 -0.2352 9.474491351237056 15.223943365440352 4.396108202878722 2 1 1
3899 557 7 0.1707 7.4869804686099775 19.121327163463906 1.5990844870183178 1 -1 0
4309 616 4 0.4167 8.262808066005999 13.388750150465762 6.496432323583847 2 1 1
2766 396 1 -0.5797 7.52223679442268 18.56646222313039 4.560503985766266 -1 0 0
4307 616 2 0.0195 7.898107358703738 14.85696227391716 5.2014932331965085 2 1 1
4306 616 1 -0.5797 7.866601736068456 13.49122575433893 5.611494127592715 2 1 1
3138 449 2 0.0195 2.9123033603894943 17.440087348524578 4.1842467703613515 -1 -2 2
917 131 7 0.1707 2.170029833987085 13.832164784240298 1.7014673770630133 0 -1 0
1172 168 3 -0.2352 11.039819715655714 17.570989259321 1.5456043967903073 0 -1 0
3142 449 6 0.104 1.9003717169394951 17.07961107901913 4.078524596794059 -1 -2 2
3137 449 1 -0.5797 3.412284568215405 17.704765622908955 5.506605166685949 -1 -2 2
2851 408 2 0.0195 3.1777109220690782 21.218503834044853 2.64005921561149 0 -1 1
3490 499 4 0.4167 7.168102710754325 12.319093106937709 4.301367300430842 1 0 1
2768 396 3 -0.2352 9.534733150501257 20.18662340265322 5.06420544443628 -1 0 0
3140 449 4 0.4167 2.826171975722236 18.380155004700875 5.968850577994847 -1 -2 2
912 131 2 0.0195 3.7548526704720935 12.192979969999604 2.4614189044522687 0 -1 0
2850 408 1 -0.5797 2.547887070395034 20.91488622311262 3.8836762941759946 0 -1 1
2570 368 1 -0.5797 2.692573392202535 14.125554525530687 5.674873726580981 0 -1 1
1176 168 7 0.1707 9.890751884838144 17.34853800429854 2.1690458602155034 0 -1 0
915 131 5 0.104 4.031041320647113 12.90916430414704 3.255691462566241 0 -1 0
4312 616 7 0.1707 9.769764243234162 13.950799141680617 4.036731316103824 2 1 1
2771 396 6 0.104 7.944257035070924 19.135730390168337 6.363850287506597 -1 0 0
3897 557 5 0.104 6.4739913665392015 21.14569660531907 2.7482917836366845 1 -1 0
2772 396 7 0.1707 10.619932570488906 19.480140247803565 4.802723669949076 -1 0 0
2854 408 5 0.104 3.06349903732796 20.380312715859297 1.920867289703037 0 -1 1
3139 449 3 -0.2352 4.129557907465747 16.44898448861999 3.345129109774957 -1 -2 2
1174 168 5 0.104 10.918458293572304 19.968689033800192 1.8069404138172516 0 -1 0
2770 396 5 0.104 9.087335358706001 17.959252876957994 5.878377294337001 -1 0 0
2769 396 4 0.4167 6.796893609785079 18.33200121023217 5.089849135891813 -1 0 0
3143 449 7 0.1707 3.2939106203285884 15.917914880635413 2.4851361926729396 -1 -2 2
2767 396 2 0.0195 8.52632538343863 18.796048482023767 5.52561725378888 -1 0 0
4310 616 5 0.104 7.679712861690818 15.70656851322018 5.878171252007675 2 1 1