LAMMPS data file via write_data, version 29 Sep 2021, timestep = 1000000

6655 atoms
5 atom types
5324 bonds
4 bond types
7986 angles
6 angle types
2662 impropers
2 improper types

-4.925561409269401 47.92556140926925 xlo xhi
-4.925561409269401 47.92556140926925 ylo yhi
-4.925561409269401 47.92556140926925 zlo zhi

Masses

1 12.011
2 35.45
3 35.45
4 1.008
5 1.008

Pair Coeffs # lj/cut/coul/long/omp

1 0.066 3.5
2 0.3 3.4
3 0.3 3.4
4 0.03 2.5
5 0.03 2.5

Bond Coeffs # harmonic/omp

1 245 1.781
2 245 1.781
3 340 1.09
4 340 1.09

Angle Coeffs # harmonic/omp

1 78 111.7
2 51 107.6
3 51 107.6
4 51 107.6
5 33 107.8
6 51 107.6

Improper Coeffs # cvff/omp

1 0 -1 2
2 0 -1 2

Atoms # full

5548 1110 3 -0.13065 -2.9321112597188908 -2.3087554817568114 0.8612858939495235 1 0 -2
2895 579 5 0.1449 -4.442985792109973 0.31714974355666925 -0.3498778499459118 -1 3 -1
3661 733 1 -0.0285 1.492621533639169 -0.6825846016478323 1.2930065286375583 -2 1 1
5547 1110 2 -0.13065 -1.1243702376212927 -4.632962289499838 1.2568728772197288 1 0 -2
3663 733 3 -0.13065 0.16286732105553892 -0.30785664492809683 0.12501363374850027 -2 1 1
5955 1191 5 0.1449 -4.654136357460636 -4.442006599495701 -2.594777371299834 -1 1 2
6438 1288 3 -0.13065 -3.038252381415549 3.734232256470797 1.117269015377728 3 2 1
4005 801 5 0.1449 1.5772180215370746 5.293846956472464 -4.627878548017557 -2 0 1
1533 307 3 -0.13065 0.1910493728376128 7.0158404543440245 0.2804681562870384 1 1 2
3683 737 3 -0.13065 -1.9237764630556726 1.9714157708456357 -2.4313673815932453 0 0 -1
6440 1288 5 0.1449 -4.5557350463993425 5.648361428999408 0.9499063405072844 3 2 1
3682 737 2 -0.13065 -2.058959566587822 4.934316041432295 -2.1603214054542543 0 0 -1
3681 737 1 -0.0285 -1.146422708236896 3.464426829223635 -1.7858250431848186 0 0 -1
3685 737 5 0.1449 -0.16993103336349158 3.5292589537234935 -2.190085583610475 0 0 -1
3684 737 4 0.1449 -1.1272991005550845 3.340300561552773 -0.7437172931791898 0 0 -1
4002 801 2 -0.13065 0.7213158302354694 7.501354193380747 -4.270339370417692 -2 0 1
5505 1101 5 0.1449 -4.684915189062631 3.0178537029359473 -2.7060588249526405 0 2 0
6439 1288 4 0.1449 -2.8882598424739614 6.03998502933756 1.0543582581276056 3 2 1
4004 801 4 0.1449 -0.14564945055915768 5.452306653601045 -4.529947156851907 -2 0 1
6436 1288 1 -0.0285 -3.652991523686956 5.382294921059557 1.4810985400292422 3 2 1
1634 327 4 0.1449 0.5990631303869591 -2.365186799647062 7.322680488474488 2 1 -2
1631 327 1 -0.0285 1.1364687103071347 -2.8920281767999154 8.116274861826252 2 1 -2
4777 956 2 -0.13065 -3.714601620826685 -4.135846012105426 5.956259187721166 0 1 0
2821 565 1 -0.0285 -1.3295162753647332 0.3816349603995368 6.599083198502317 -1 -1 -1
5549 1110 4 0.1449 -0.7933847769529754 -2.4701657588092334 1.9100876100523496 1 0 -2
5546 1110 1 -0.0285 -1.654415997016148 -3.108670686408799 1.8472291342308735 1 0 -2
2824 565 4 0.1449 -0.3180568949800824 0.6183258203424273 6.336982046736745 -1 -1 -1
2823 565 3 -0.13065 -1.7558776728181638 -0.990219435840666 5.568878844804052 -1 -1 -1
5550 1110 5 0.1449 -2.048428388635869 -3.283175672614219 2.840742571073077 1 0 -2
2825 565 5 0.1449 -1.911280284456769 1.3224133859501572 6.425107054345186 -1 -1 -1
3662 733 2 -0.13065 1.0314306409398508 -0.5182847923339642 3.0220240722982146 -2 1 1
3716 744 1 -0.0285 1.1574557617672507 3.5960952135356425 7.239233495012191 0 -1 1
2044 409 4 0.1449 1.0167556745269275 6.381584824232959 2.859184773918677 1 3 0
2043 409 3 -0.13065 -0.4092950927702157 5.763627227976313 4.654786549656176 1 3 0
332 67 2 -0.13065 -4.417952867129822 2.360607381173799 4.681402330469739 0 1 1
3717 744 2 -0.13065 1.5531444124957492 2.8382124597417304 5.681905926223401 0 -1 1
3720 744 5 0.1449 1.5240604099958999 4.585953135386184 7.390007339475635 0 -1 1
3719 744 4 0.1449 0.035313022356992185 3.574679020975017 7.270679968972487 0 -1 1
6437 1288 2 -0.13065 -3.887202912176133 5.7074441041080455 3.206146497389426 3 2 1
2041 409 1 -0.0285 0.7981343008332606 6.770735212049555 3.8300417612514446 1 3 0
2045 409 5 0.1449 0.33159109790521235 7.707261579572295 3.6646030023085525 1 3 0
4343 869 3 -0.13065 -1.936804216766781 -4.241086096454867 13.179413354725765 0 -1 0
3208 642 3 -0.13065 -2.554076831869683 -3.1699550405148123 9.996443320519177 0 -1 0
3206 642 1 -0.0285 -4.048620270824739 -2.13197338958027 9.960845941303749 0 -1 0
727 146 2 -0.13065 -3.2864200363727303 1.2065980624885944 11.251299914370993 2 -1 2
3210 642 5 0.1449 -3.951856812237303 -1.5941576683030747 9.039390277420702 0 -1 0
4341 869 1 -0.0285 -0.6137426607854364 -3.0473444357073927 13.150360022696065 0 -1 0
1633 327 3 -0.13065 1.07339893583383 -1.866078856073345 9.605619246323663 2 1 -2
4342 869 2 -0.13065 -0.9352847102375104 -1.4174515778106591 13.749707714240884 0 -1 0
4345 869 5 0.1449 -0.28363972867672516 -2.9674691696741595 12.180245945385973 0 -1 0
730 146 5 0.1449 -2.721203127048282 0.8646841816991522 13.653529900579782 2 -1 2
5729 1146 4 0.1449 -4.831614238853411 -2.252905245058417 14.803763967010982 0 -1 0
726 146 1 -0.0285 -2.3691345999142435 1.4127105771727484 12.747090484626815 2 -1 2
729 146 4 0.1449 -1.3344047277729154 1.0485070564173844 12.522632377964971 2 -1 2
1632 327 2 -0.13065 0.24827556405384232 -4.4729538020169315 8.403523557555253 2 1 -2
4344 869 4 0.1449 0.2000056757219646 -3.4745678014349157 13.780458215031802 0 -1 0
3209 642 4 0.1449 -4.101629336715759 -1.4802139641963223 10.872048364408062 0 -1 0
2822 565 2 -0.13065 -1.506841191330052 0.033472119581078985 8.387135234939572 -1 -1 -1
810 162 5 0.1449 -0.39818345871776994 1.754048613047571 14.831737918443949 -1 1 0
1347 270 2 -0.13065 -3.2328005883900337 3.4351295026770536 8.837304193951114 2 1 -1
1425 285 5 0.1449 1.236961941986264 2.5748728451116207 11.561855648412322 0 0 1
4806 962 1 -0.0285 1.0271591989850304 6.79069460867618 14.094778700046863 3 2 1
1348 270 3 -0.13065 -0.888628412459255 4.74860763206552 10.124867232656527 2 1 -1
728 146 3 -0.13065 -2.251342851578298 3.147518503184079 13.271822301154431 2 -1 2
4807 962 2 -0.13065 1.158527920723336 5.363933906352429 13.100477490232105 3 2 1
1350 270 5 0.1449 -2.838465107820535 5.73673194838579 9.340808647795752 2 1 -1
1349 270 4 0.1449 -3.0728899484850665 4.755840902842365 10.783110776884321 2 1 -1
1346 270 1 -0.0285 -2.576583318436594 4.770500860109671 9.814879949624002 2 1 -1
2097 420 2 -0.13065 -2.1652430822033137 8.218307253313393 10.969650606566603 0 -1 1
3718 744 3 -0.13065 1.5529627170191587 2.5916407132967363 8.565899219026042 0 -1 1
4808 962 3 -0.13065 -0.6387274311624189 7.461252874905885 14.206076811777013 3 2 1
4809 962 4 0.1449 1.6709304898125437 7.6602087644800765 13.690118404188674 3 2 1
2549 510 4 0.1449 -4.120325738841005 0.09525407721483958 18.610263551933933 -2 1 -1
2550 510 5 0.1449 -3.4911177210479885 -1.6603665217992911 18.199508285942134 -2 1 -1
807 162 2 -0.13065 0.6347778384585707 0.025261211698282438 16.125218305192632 -1 1 0
4287 858 2 -0.13065 -0.5418087304102306 -3.248835930479335 17.834932606883502 -1 -1 -2
4286 858 1 -0.0285 -1.670440256157352 -4.395662906282125 18.603340374378973 -1 -1 -2
4288 858 3 -0.13065 -3.3438481368904895 -4.430452684632363 17.80574936626263 -1 -1 -2
4289 858 4 0.1449 -1.8644893055076315 -4.080682846214929 19.613324975074942 -1 -1 -2
6455 1291 5 0.1449 1.5167828042263487 -1.4665167811758648 19.810694136732785 2 1 0
2547 510 2 -0.13065 -3.5629744186855654 -0.21656728298470806 16.312263292952828 -2 1 -1
2546 510 1 -0.0285 -4.059132362995354 -0.8195185095303588 17.9364310197981 -2 1 -1
808 162 3 -0.13065 1.5340726962169189 2.668697102926018 15.908548202608255 -1 1 0
3847 770 2 -0.13065 1.4388268613084536 2.251391269108633 21.246804155030244 1 0 0
4271 855 1 -0.0285 -4.266002715030377 5.317299237417366 16.518793963586116 1 0 -2
3849 770 4 0.1449 1.3545355903866358 2.4731969261860565 19.042356996227436 1 0 0
2019 404 4 0.1449 0.2846076754285374 7.893635606572818 20.04093700727091 0 -1 -1
3848 770 3 -0.13065 -0.9019800148060595 1.726165302236062 19.613466051626453 1 0 0
2020 404 5 0.1449 -0.4161439695384219 6.519586659894918 20.84701152176955 0 -1 -1
4273 855 3 -0.13065 -4.326040926521413 3.552872518843131 16.860557371243566 1 0 -2
2016 404 1 -0.0285 -0.2592921953718177 6.988721396613387 19.820706470164147 0 -1 -1
809 162 4 0.1449 -0.6238026050794723 1.9858905008905783 16.62383279924788 -1 1 0
806 162 1 -0.0285 0.07965655311328312 1.7396436949733554 15.830399991360903 -1 1 0
2017 404 2 -0.13065 0.7816353121793611 5.990413809599794 18.790333206220115 0 -1 -1
3850 770 5 0.1449 0.1028148141457157 3.61069714742243 19.843221651504876 1 0 0
3846 770 1 -0.0285 0.5632243736203542 2.6400830544989526 19.79642248479386 1 0 0
4275 855 5 0.1449 -4.193665703432654 5.47111321298582 15.449380032589483 1 0 -2
4810 962 5 0.1449 1.3080999348027502 6.617429725771217 15.16330375706508 3 2 1
4274 855 4 0.1449 -3.4005242582553095 5.875662692359445 16.929941043309203 1 0 -2
2018 404 3 -0.13065 -1.7794826898589475 7.479196651200043 19.042569946026696 0 -1 -1
6480 1296 5 0.1449 1.3137121634680042 -1.6455335218374487 22.81884393156407 0 2 3
2142 429 2 -0.13065 0.9656811037824173 -4.731012109140521 25.66847634789834 -1 0 -1
2143 429 3 -0.13065 0.0795710812767414 -2.4557460068477313 27.31331708599166 -1 0 -1
6478 1296 3 -0.13065 -0.703903667016994 -0.9900937787384221 21.80287222478688 0 2 3
2141 429 1 -0.0285 0.022583708577669448 -4.252234643672603 27.116863543790224 -1 0 -1
6477 1296 2 -0.13065 0.6728925610747432 0.2440582813030252 24.280530960008537 0 2 3
6479 1296 4 0.1449 -0.12119451295636097 -1.923164279242025 23.808048117396996 0 2 3
1313 263 3 -0.13065 -2.4790617692081534 -4.247183678311305 23.755445161435176 0 0 0
6476 1296 1 -0.0285 0.36529703873654285 -1.1682939574966245 23.226116946451178 0 2 3
5524 1105 4 0.1449 -4.44574671155516 -2.635855573619131 27.454651189619398 -1 0 0
267 54 2 -0.13065 -2.9763347883380358 -0.1607747415651497 26.117960590793807 0 0 0
266 54 1 -0.0285 -4.432962197259196 0.5946622443800944 26.568161277364943 0 0 0
2145 429 5 0.1449 -1.0504505364026215 -4.572949521747342 26.846514602908577 -1 0 -1
2144 429 4 0.1449 0.3948669352568519 -4.889079381390483 27.904493524158873 -1 0 -1
270 54 5 0.1449 -4.271780821783901 1.6905298178669437 26.666585374698247 0 0 0
6143 1229 3 -0.13065 -4.407588930898474 5.7261520051112385 27.972138489616086 2 -1 1
939 188 4 0.1449 -2.307057556006222 3.115509748554789 23.820210675802986 -4 1 0
937 188 2 -0.13065 -1.7317388589254423 4.5259229555981655 22.03929552498977 -4 1 0
3090 618 5 0.1449 -0.7766837008203211 6.424697660239049 25.27388077917847 2 0 -1
3088 618 3 -0.13065 -2.0183417126979877 7.86966872101509 23.871444276080357 2 0 -1
3086 618 1 -0.0285 -1.656862438782928 7.032209962884965 25.40241234257062 2 0 -1
3089 618 4 0.1449 -2.488770387895908 6.3846686615761605 25.660416236847674 2 0 -1
5703 1141 3 -0.13065 -1.218475067784993 3.8846220248999757 26.547946783588692 2 4 3
5704 1141 4 0.1449 0.565139554585655 3.994480959703832 27.99809617975475 2 4 3
5705 1141 5 0.1449 0.268693294298199 5.571645570511366 27.35390906135194 2 4 3
5701 1141 1 -0.0285 -0.23569967818155835 4.674344254922952 27.787889567024244 2 4 3
940 188 5 0.1449 -1.2957078827786237 2.286706336846988 22.6891894766139 -4 1 0
936 188 1 -0.0285 -2.181775932955923 2.9957388780485674 22.741749011757253 -4 1 0
938 188 3 -0.13065 -3.5180017720964507 2.3090296789863265 21.748733793696417 -4 1 0
1107 222 2 -0.13065 -0.3416598711311716 -4.816976269260051 30.362480832069974 2 2 -2
4087 818 2 -0.13065 1.5055842184861978 -1.4093784931727233 30.799709498654902 0 0 1
4088 818 3 -0.13065 -1.2418345229838703 -0.48717542062523833 30.281853100987423 0 0 1
4090 818 5 0.1449 -0.4767669306345992 -2.254686180469723 31.703725228972566 0 0 1
4086 818 1 -0.0285 -0.17857347027841897 -1.2439200651506241 31.411542306798182 0 0 1
4089 818 4 0.1449 -0.2443257763558977 -0.6899840027085293 32.37323895499935 0 0 1
5522 1105 2 -0.13065 -3.203706162604005 -3.4825595995773533 29.4359957478395 -1 0 0
5521 1105 1 -0.0285 -4.548339229879289 -3.4946575923591645 28.236122691488827 -1 0 0
6068 1214 3 -0.13065 -1.9393720912215167 -3.1238139776237324 34.362091752196335 2 1 -3
5100 1020 5 0.1449 1.0056937239571093 5.275414086482753 30.837971626687217 1 1 0
5539 1108 4 0.1449 -2.8891196683742737 7.79089039250567 33.79058355645839 2 0 -2
5540 1108 5 0.1449 -1.2175991795462533 7.35423230638969 33.37054832563989 2 0 -2
5702 1141 2 -0.13065 -1.2082449476893427 4.895546428037537 29.291199356725816 2 4 3
5096 1020 1 -0.0285 1.5169598080479298 6.211944801399806 30.95998451371048 1 1 0
991 199 1 -0.0285 -1.4902002319031995 2.21953822371987 34.65057376035361 0 3 -1
5098 1020 3 -0.13065 0.581561725319121 7.613525564694974 31.533860317178604 1 1 0
992 199 2 -0.13065 -1.627771923978175 2.0941332421098373 32.9144205550123 0 3 -1
6612 1323 2 -0.13065 1.3435902615209443 2.3416867290833805 30.752910068070957 0 3 -1
5536 1108 1 -0.0285 -1.8318432477162712 7.988575632162636 33.97856690892959 2 0 -2
3028 606 3 -0.13065 -3.748573499338521 -3.234616283135699 39.05626373911456 1 3 0
3029 606 4 0.1449 -1.4507866439774735 -2.8946256208264782 39.121796778585114 1 3 0
3026 606 1 -0.0285 -2.206237308948011 -2.749423083213837 39.84350948789131 1 3 0
6067 1214 2 -0.13065 -2.9504775054058205 -0.47017414725394513 35.481618535683204 2 1 -3
3027 606 2 -0.13065 -1.722224839446345 -3.729197908611839 41.25944764929551 1 3 0
2812 563 2 -0.13065 -4.708640853607577 0.7215257967536113 39.48037076348911 -1 -2 -2
3030 606 5 0.1449 -2.3261804721592836 -1.6923483229472636 40.07178411079529 1 3 0
6066 1214 1 -0.0285 -3.1871675536263124 -2.213172331836951 35.32052488252513 2 1 -3
6070 1214 5 0.1449 -3.340917873093858 -2.682159691456567 36.29593473816934 2 1 -3
994 199 4 0.1449 -0.8645348637591077 1.547357635878205 35.03918801306441 0 3 -1
3410 682 5 0.1449 1.2835090628832004 -0.7313800507882506 41.119391330191156 1 2 0
6069 1214 4 0.1449 -4.152275761626155 -2.308048628050953 34.73411198928609 2 1 -3
5601 1121 1 -0.0285 1.4385450049923598 2.0087002274338364 38.62138928038311 1 2 0
5603 1121 3 -0.13065 -0.19402816693780522 1.7301395416025427 38.0935920344409 1 2 0
5765 1153 5 0.1449 -0.5690147285473053 7.306213803962374 40.0389025840968 0 0 -3
5761 1153 1 -0.0285 -0.7094148588219369 6.6278583041114345 39.19260606270155 0 0 -3
2811 563 1 -0.0285 -4.387440112640983 2.3828054501511016 38.90549747613451 -1 -2 -2
2815 563 5 0.1449 -3.4712288894314227 2.784652107506794 39.36118161204089 -1 -2 -2
2814 563 4 0.1449 -4.156385291770697 2.356765760012232 37.81318101539751 -1 -2 -2
993 199 3 -0.13065 -0.9331380237576532 3.886558016723816 35.064774209769126 0 3 -1
5763 1153 3 -0.13065 -1.2716515045901562 5.14438004869751 39.920576734904415 0 0 -3
5764 1153 4 0.1449 -1.4762502323225344 7.052026062924355 38.53267946440898 0 0 -3
5537 1108 2 -0.13065 -1.5003472847245747 7.638947635961111 35.69294578876941 2 0 -2
5602 1121 2 -0.13065 1.433488770765936 2.877301682150616 40.141761989003825 1 2 0
2697 540 2 -0.13065 -4.103738496707083 5.371314016002874 35.43591403548861 2 1 -3
2804 561 4 0.1449 0.9587100801436508 6.59109989661267 35.475542645475684 3 1 1
5762 1153 2 -0.13065 0.8530142400137724 6.361519057279969 38.382758973867034 0 0 -3
995 199 5 0.1449 -2.4232616275880523 2.021417715114654 35.14583491154202 0 3 -1
3122 625 2 -0.13065 1.0038292250319785 -0.4294228200775114 45.3663787441614 0 2 -3
3409 682 4 0.1449 1.4093625960852636 -0.08737877622712986 42.6870997493886 1 2 0
1574 315 4 0.1449 -2.129022680393919 1.4904073107341613 47.42833356883855 0 2 0
1575 315 5 0.1449 -1.2681146808029227 1.1742316023379535 45.83850146448781 0 2 0
90 18 5 0.1449 -2.9876749072485262 -1.7685951405204365 43.0664339770016 0 0 1
89 18 4 0.1449 -1.4073030293617554 -1.6595240997454268 43.98462577513167 0 0 1
3121 625 1 -0.0285 1.2841445338682993 -1.9168321936503436 46.3486551052059 0 2 -3
3123 625 3 -0.13065 -0.13564531272327685 -2.940544138359737 46.474402211657655 0 2 -3
1495 299 5 0.1449 -3.947893929191354 -4.7039176860240595 46.367377385591155 1 2 -3
87 18 2 -0.13065 -1.7276784742021034 0.2739544438251924 42.72166768277509 0 0 1
86 18 1 -0.0285 -2.2903497179501997 -1.1345271554876728 43.65576550072103 0 0 1
88 18 3 -0.13065 -3.3341062414674063 -0.7542454021994818 45.06308334409797 0 0 1
3124 625 4 0.1449 1.5906123019351686 -1.7168221566257245 47.363430365070975 0 2 -3
1572 315 2 -0.13065 -0.1257332064871477 2.6954467666170894 47.25370136512909 0 2 0
1571 315 1 -0.0285 -1.5639177258657768 1.9088636929475706 46.61821282595743 0 2 0
3863 773 3 -0.13065 -4.0736094969768395 6.405874332289086 41.55204405308857 -1 -3 0
1573 315 3 -0.13065 -2.5963423849389224 3.0851551416508265 45.73850369676389 0 2 0
4001 801 1 -0.0285 0.6890029057987652 5.896164524740824 47.897061048712644 -2 0 0
4003 801 3 -0.13065 0.7706526075054017 5.848488819878108 46.01904187425721 -2 0 0
3864 773 4 0.1449 -2.1198861814627503 6.200835195490157 42.89642901599233 -1 -3 0
3865 773 5 0.1449 -2.127916609759435 7.846252863280748 42.06488041543476 -1 -3 0
3861 773 1 -0.0285 -2.709960881644125 7.038926731977378 42.59279635771217 -1 -3 0
753 151 3 -0.13065 -2.6594132190553377 6.696445569233825 46.832683108257754 -2 1 1
3862 773 2 -0.13065 -3.4595321182555585 7.883448488841925 43.88428959331519 -1 -3 0
37 8 2 -0.13065 0.04298417226967377 11.483310865235984 -4.2538532356900705 2 0 0
38 8 3 -0.13065 -2.4672325589460726 10.56425457322519 -2.8618927491288013 2 0 0
36 8 1 -0.0285 -1.5264681426872992 11.98290218244412 -3.513621968507359 2 0 0
39 8 4 0.1449 -2.1558296742836 12.507384069031348 -4.2790666231000225 2 0 0
40 8 5 0.1449 -1.2368842493981869 12.68333093384887 -2.7092049359850385 2 0 0
5093 1019 3 -0.13065 -0.9163321900458659 10.442387448283963 0.8484889348828691 2 -2 1
3763 753 3 -0.13065 -0.32758717951481753 14.539032445372312 1.2016981663093316 -3 0 1
1597 320 2 -0.13065 -4.4355778930862275 13.307873462592513 0.9445544153845497 1 1 -1
612 123 2 -0.13065 1.3532750853211937 12.506677021461664 -0.861549697892968 2 0 -1
273 55 3 -0.13065 -4.785359913913636 8.548269592796158 -0.9640410580666344 -1 1 1
5889 1178 4 0.1449 -4.591250918386252 12.545873776275654 -4.279096381788828 1 -1 1
1534 307 4 0.1449 1.5493538714327153 8.745842858327794 -0.4615587236324396 1 1 2
755 151 5 0.1449 -2.317416848462675 8.460988982175628 -4.486857915014256 -2 1 2
813 163 3 -0.13065 -3.5773604531886374 15.348365404658582 -4.516201166738116 0 -2 -3
4198 840 3 -0.13065 -1.359496976220505 19.33234563975816 -1.399049367657173 0 -1 0
815 163 5 0.1449 -3.457513439190108 16.422640041301648 -2.438130074477581 0 -2 -3
811 163 1 -0.0285 -2.6984640051959645 16.271391277390286 -3.2121782676004518 0 -2 -3
812 163 2 -0.13065 -1.3113721066800275 15.384448166915602 -2.4298587420268567 0 -2 -3
814 163 4 0.1449 -2.441267244093956 17.26796372039029 -3.630983956679829 0 -2 -3
4199 840 4 0.1449 0.7762173747927097 20.136675801548662 -1.4168004357410822 0 -1 0
4200 840 5 0.1449 0.45303309806904135 19.029025112822666 -2.7610361293820174 0 -1 0
4196 840 1 -0.0285 0.05111459938309437 19.880129147739638 -2.214580276096587 0 -1 0
4197 840 2 -0.13065 -0.08261487658322064 21.314674349159418 -3.3297954426920633 0 -1 0
2703 541 3 -0.13065 -2.9919128927739616 17.16305953908236 0.9106663500757842 -3 -2 -1
1672 335 2 -0.13065 0.2646119369893496 19.6434190067926 1.65656156099578 1 -1 -1
5092 1019 2 -0.13065 -0.6516856642529216 10.345385411628099 3.8191192947228783 2 -2 1
5091 1019 1 -0.0285 -1.4642781212457052 11.10158825094698 2.4236161936581175 2 -2 1
5095 1019 5 0.1449 -2.5482177179058993 10.793308243574318 2.565368822524932 2 -2 1
5094 1019 4 0.1449 -1.4259433178291299 12.195588627531096 2.4974620944288755 2 -2 1
3762 753 2 -0.13065 -0.09479101496666775 13.790656353339708 4.1615491984611745 -3 0 1
4459 892 4 0.1449 -1.9203722627985735 14.129754811101057 6.532752974111584 0 0 -1
4456 892 1 -0.0285 -2.889323374669653 13.594734053305354 6.771215927694548 0 0 -1
4457 892 2 -0.13065 -2.5622265272862976 12.202410956768551 7.759954455649966 0 0 -1
4460 892 5 0.1449 -3.6201485289606303 14.176464147924465 7.316674068252969 0 0 -1
4458 892 3 -0.13065 -3.4816678243609633 13.125424258888097 5.087253892231325 0 0 -1
4297 860 2 -0.13065 -4.791664173394946 8.943061682581975 4.86685039916792 0 0 -2
2428 486 3 -0.13065 1.2422031472919635 12.350446449191642 6.967203992561054 0 1 2
4300 860 5 0.1449 -4.2763619689489865 9.087170849504922 2.5632020601294303 0 0 -2
2429 486 4 0.1449 1.4317418325255273 9.970753512205434 6.7144991037585875 0 1 2
2705 541 5 0.1449 -3.3649482298901185 17.088287022479648 3.3515521631522294 -3 -2 -1
5297 1060 2 -0.13065 -3.210732429714328 17.025635150812846 6.50720509353596 1 2 0
5357 1072 2 -0.13065 0.29329776507493754 16.20815895079386 6.440171891163048 1 -1 2
2704 541 4 0.1449 -3.9234672238481085 15.605907230277671 2.3718195865263647 -3 -2 -1
5259 1052 4 0.1449 -4.441125615902422 20.75782172733237 2.8013703853954324 1 -1 0
3765 753 5 0.1449 -0.72695322169678 15.86995264198156 3.1809212095121557 -3 0 1
3764 753 4 0.1449 0.989139387719649 15.456321043171032 2.8856777216651697 -3 0 1
3761 753 1 -0.0285 -0.03728410110548097 15.089538286167793 2.87092025510932 -3 0 1
1671 335 1 -0.0285 0.9019543493745843 21.06332280539383 2.5178260656346922 1 -1 -1
5358 1072 3 -0.13065 -0.5330609883498774 18.381440527070872 4.680068988787258 1 -1 2
2701 541 1 -0.0285 -3.8700145985433108 16.710591369774924 2.419291112947638 -3 -2 -1
5257 1052 2 -0.13065 -4.165764224841399 20.143965840973223 5.127125790289518 1 -1 0
5360 1072 5 0.1449 0.19630615092167503 18.560976646217526 6.976970333396415 1 -1 2
5356 1072 1 -0.0285 0.41792351479744916 17.939034580661932 6.0744504583341135 1 -1 2
5359 1072 4 0.1449 1.5045017038678372 18.062952737595417 5.8923683362440515 1 -1 2
1675 335 5 0.1449 0.26593864773968257 21.095231162028703 3.489151908134822 1 -1 -1
5281 1057 1 -0.0285 -3.029625637001282 12.189239286393468 12.85085159867005 0 1 -1
5285 1057 5 0.1449 -3.2293147560086597 12.28135214983291 11.768610398686102 0 1 -1
5284 1057 4 0.1449 -1.99894504495991 12.41690797237535 13.066075604059513 0 1 -1
5282 1057 2 -0.13065 -4.058659186733278 13.252479908239716 13.714363864055482 0 1 -1
2099 420 4 0.1449 -0.06648429192993444 9.212195914313618 10.509149435352663 0 -1 1
1642 329 2 -0.13065 -0.6243621803612136 12.799520409309812 9.987929430222895 1 1 -1
1641 329 1 -0.0285 -0.06962179108109634 14.487879502655554 9.847949802926328 1 1 -1
2096 420 1 -0.0285 -1.0165056573129552 9.167928965670415 10.037914848350248 0 -1 1
5283 1057 3 -0.13065 -3.3696047473367035 10.51663888303516 13.321794440293967 0 1 -1
2100 420 5 0.1449 -1.432876254497819 10.197033413417852 9.994699183421128 0 -1 1
1645 329 5 0.1449 0.3888034948376502 14.815529458089935 10.768741253520862 1 1 -1
5793 1159 3 -0.13065 0.8475176507412856 11.107288192536851 13.831539889700368 0 1 -2
5795 1159 5 0.1449 1.5732598183584843 11.644278396365928 11.560462332154414 0 1 -2
2098 420 3 -0.13065 -0.789248815194485 8.475018030419742 8.430209290791202 0 -1 1
1644 329 4 0.1449 0.614637806243076 14.46017014390438 9.053342045722829 1 1 -1
5383 1077 3 -0.13065 -4.908371833917192 10.861655674053752 9.94355737863838 2 0 2
1643 329 3 -0.13065 -1.3531480155378781 15.572406434174932 9.514909848743608 1 1 -1
4058 812 3 -0.13065 -4.39243442406371 18.187623430348275 12.414912400071339 -1 -1 1
984 197 4 0.1449 -2.06205430212381 19.904217660061256 10.965946828253875 0 1 -1
982 197 2 -0.13065 -0.26706285994415513 20.171325660456603 9.49249379296544 0 1 -1
4060 812 5 0.1449 -3.7097563090053063 15.932377847349139 13.172550990238154 -1 -1 1
4057 812 2 -0.13065 -1.6199600886846919 16.85738196114199 12.56469929868637 -1 -1 1
4056 812 1 -0.0285 -3.2685929636270896 16.967810137546486 13.175050904144426 -1 -1 1
4059 812 4 0.1449 -3.200754702254347 17.315225537712905 14.238928122862799 -1 -1 1
981 197 1 -0.0285 -1.8040424131281019 19.52541828917785 9.993596582434689 0 1 -1
985 197 5 0.1449 -1.6275662858151114 18.4798950543358 10.07778321679079 0 1 -1
983 197 3 -0.13065 -3.0853843623076216 19.520537813470156 8.794310387525123 0 1 -1
5687 1138 2 -0.13065 -0.33734653347781407 21.439475492607528 13.522228879441549 0 -3 1
5462 1093 2 -0.13065 1.3886694409126505 17.25539120357429 10.894703344237668 2 -2 1
5465 1093 5 0.1449 1.5948991685085092 17.88829092187975 13.259480113383265 2 -2 1
5464 1093 4 0.1449 1.2669195251661103 16.115761328747766 12.919000257984191 2 -2 1
4220 844 5 0.1449 -1.0413836094908202 12.486130643925366 17.99988502947425 -1 0 1
4218 844 3 -0.13065 -0.9224423069923944 13.330854860213835 15.815571699226235 -1 0 1
4216 844 1 -0.0285 -1.7331774339047645 13.032044525468022 17.377358264936568 -1 0 1
2314 463 4 0.1449 -4.858280983199876 11.552186005357294 18.533234092539733 1 3 0
2313 463 3 -0.13065 -4.164703566151361 9.678522161471836 17.36994795738634 1 3 0
1660 332 5 0.1449 0.9844952067370123 10.046654283164356 16.374770547659733 2 2 4
2312 463 2 -0.13065 -3.125077322495992 10.583004996597296 20.00539749532784 1 3 0
1657 332 2 -0.13065 0.8823267065640747 10.458785203080586 18.67873459107033 2 2 4
2311 463 1 -0.0285 -4.506581151918965 10.527990677283107 18.912345975291952 1 3 0
4217 844 2 -0.13065 -2.4156023761041325 14.53987266960131 18.111349065974338 -1 0 1
4219 844 4 0.1449 -2.5396103705088513 12.361939612525754 17.13400919813625 -1 0 1
4693 939 3 -0.13065 -0.1728873560298565 13.959810964830725 20.646112683059634 0 1 0
2685 537 5 0.1449 -3.220387348640232 14.670557574668388 21.257542782467684 -2 -1 2
4695 939 5 0.1449 0.17339882119947703 15.834746499771489 19.098865028702463 0 1 0
5266 1054 1 -0.0285 -4.340241253230375 19.36176189224821 16.347030388985694 1 0 0
4691 939 1 -0.0285 0.16814057572944296 15.698207808441042 20.174952893052087 0 1 0
4692 939 2 -0.13065 -1.0207605252092504 16.819706726112855 20.8697131694056 0 1 0
2922 585 2 -0.13065 0.17155061446195852 19.28410282911171 18.970983672834723 0 4 0
2923 585 3 -0.13065 0.8815088497045274 18.255100386449072 16.30722012519816 0 4 0
2921 585 1 -0.0285 0.2918818269992576 19.671667466050636 17.28050150855982 0 4 0
5268 1054 3 -0.13065 -3.2896257136296976 18.165565498690924 17.04758564575611 1 0 0
5269 1054 4 0.1449 -4.138518790403819 20.323236008331676 16.759029180510698 1 0 0
5270 1054 5 0.1449 -4.027916007545803 19.364005982285782 15.296205631498351 1 0 0
2925 585 5 0.1449 -0.6251936414700356 19.924072629433596 16.8140979856551 0 4 0
4694 939 4 0.1449 1.1359043039513228 15.860384591787886 20.629428458741394 0 1 0
2924 585 4 0.1449 1.031004875802509 20.52455715033266 17.216061687477648 0 4 0
4971 995 1 -0.0285 -3.547180623975291 11.131075481553703 24.41286288093132 1 1 0
4972 995 2 -0.13065 -2.63295160943879 11.781780628904391 25.873906725576187 1 1 0
4974 995 4 0.1449 -2.7951996008978406 10.862251220425057 23.672381875491087 1 1 0
4975 995 5 0.1449 -4.172347144681488 11.911364618018764 23.984419505486592 1 1 0
1037 208 2 -0.13065 -0.13174253263410574 10.889358809401154 22.157951989611444 -1 1 1
1891 379 1 -0.0285 0.2411513136849477 13.944309386755124 25.550876602701273 -1 1 -1
2683 537 3 -0.13065 -3.929905306151727 14.815590065536243 23.593156935872614 -2 -1 2
2681 537 1 -0.0285 -4.229194938129528 14.707561488279916 21.799939232189615 -2 -1 2
1893 379 3 -0.13065 1.3374660270037788 12.78174645963245 26.205881402354958 -1 1 -1
1895 379 5 0.1449 -0.6790184136721438 13.957972062502739 26.12702923155141 -1 1 -1
1605 321 5 0.1449 -3.513265359416084 9.856247646059863 28.06473351760655 2 -1 0
1894 379 4 0.1449 -0.02766603014047142 13.558467863974014 24.568744649106357 -1 1 -1
4973 995 3 -0.13065 -4.556040059734764 9.769445346909777 24.888596814612253 1 1 0
1038 208 3 -0.13065 1.627958557235707 8.564104482535555 22.65029335537992 -1 1 1
1039 208 4 0.1449 1.1735025094805716 10.436266637019594 24.043198296482238 -1 1 1
1036 208 1 -0.0285 1.3349247002665559 10.33223238249164 22.938175297729686 -1 1 1
3087 618 2 -0.13065 -1.4345261557364983 8.327571986030774 26.674027164375033 2 0 -1
1066 214 1 -0.0285 0.821040953702477 18.077237697588487 27.941934488447906 0 0 3
1068 214 3 -0.13065 -0.9750556961917214 17.803413890146246 27.776022023508386 0 0 3
3623 725 3 -0.13065 -3.730224891776511 19.843266347876423 24.695412516324986 0 0 -1
3624 725 4 0.1449 -3.65732155228067 17.506582367986944 25.049859441869998 0 0 -1
3622 725 2 -0.13065 -1.5714471109907495 17.9794586009942 24.053292447878558 0 0 -1
3621 725 1 -0.0285 -3.3367491814982437 18.15432579929398 24.263530435162508 0 0 -1
3625 725 5 0.1449 -3.82989697141636 17.805059667162702 23.34428468925024 0 0 -1
1892 379 2 -0.13065 0.9813042288600275 15.503499864941078 25.38853956094232 -1 1 -1
1750 350 5 0.1449 -0.31361481647337097 21.026657360942608 23.781906427889915 -1 0 0
1067 214 2 -0.13065 1.5479201864063512 19.514599686386255 27.048638459329695 0 0 3
1070 214 5 0.1449 1.4026186226979807 17.165092808911226 27.756308656085835 0 0 3
2684 537 4 0.1449 -4.843577995564811 15.58686492511414 21.58316814259794 -2 -1 2
147 30 2 -0.13065 -2.1509626563064606 14.69686907129646 29.412683311529367 0 -1 0
4601 921 1 -0.0285 -3.497954164594094 12.554700739259557 32.647795270338705 -1 0 1
1604 321 4 0.1449 -3.9589379401081937 8.623727626711462 29.31732338539227 2 -1 0
148 30 3 -0.13065 -0.4525064961628029 13.092194265859474 31.157945389609154 0 -1 0
1602 321 2 -0.13065 -2.3066909531536184 9.86747435393317 30.07210657906485 2 -1 0
1601 321 1 -0.0285 -3.715587747312426 9.62769133228913 29.08222377982658 2 -1 0
146 30 1 -0.0285 -0.6962017372037792 13.718823989874425 29.559618241014913 0 -1 0
4605 921 5 0.1449 -2.5603762014548894 12.126528510106356 33.065018825821475 -1 0 1
5538 1108 3 -0.13065 -1.3974636799743259 9.620486895561767 33.59265131301555 2 0 -2
4604 921 4 0.1449 -3.6139746437049167 12.392318169780756 31.616946369267353 -1 0 1
2928 586 3 -0.13065 1.2882743411765647 10.465122742753204 29.066838138015413 1 0 0
149 30 4 0.1449 0.2328491396849257 14.356292537222279 29.21606629324197 0 -1 0
150 30 5 0.1449 -0.6981770361214616 12.869474910653375 28.883860778231394 0 -1 0