LAMMPS data file via write_data, version 29 Aug 2024, timestep = 1000000, units = real

5145 atoms
15 atom types
4802 bonds
14 bond types
8575 angles
25 angle types
8232 dihedrals
24 dihedral types

3.112607900386653 41.88739209958176 xlo xhi
3.112607900386653 41.88739209958176 ylo yhi
3.112607900386653 41.88739209958176 zlo zhi

Masses

1 12.011
2 12.011
3 15.999
4 12.011
5 12.011
6 1.008
7 1.008
8 1.008
9 1.008
10 1.008
11 1.008
12 1.008
13 1.008
14 1.008
15 1.008

Pair Coeffs # lj/cut/coul/long

1 0.066 3.5
2 0.066 3.5
3 0.14 2.9
4 0.066 3.5
5 0.066 3.5
6 0.03 2.5
7 0.03 2.5
8 0.03 2.5
9 0.03 2.5
10 0.03 2.5
11 0.03 2.5
12 0.03 2.5
13 0.03 2.5
14 0.03 2.5
15 0.03 2.5

Bond Coeffs # harmonic

1 268 1.529
2 320 1.41
3 320 1.41
4 268 1.529
5 340 1.09
6 340 1.09
7 340 1.09
8 340 1.09
9 340 1.09
10 340 1.09
11 340 1.09
12 340 1.09
13 340 1.09
14 340 1.09

Angle Coeffs # harmonic

1 50 109.5
2 60 109.5
3 50 109.5
4 37.5 110.7
5 37.5 110.7
6 37.5 110.7
7 37.5 110.7
8 37.5 110.7
9 35 109.5
10 35 109.5
11 37.5 110.7
12 37.5 110.7
13 37.5 110.7
14 37.5 110.7
15 33 107.8
16 33 107.8
17 33 107.8
18 33 107.8
19 33 107.8
20 33 107.8
21 37.5 110.7
22 35 109.5
23 33 107.8
24 33 107.8
25 35 109.5

Dihedral Coeffs # opls

1 0.65 -0.25 0.67 0
2 0.65 -0.25 0.67 0
3 0 0 0.468 0
4 0 0 0.468 0
5 0 0 0.468 0
6 0 0 0.3 0
7 0 0 0.3 0
8 0 0 0.3 0
9 0 0 0.3 0
10 0 0 0.76 0
11 0 0 0.76 0
12 0 0 0.468 0
13 0 0 0.3 0
14 0 0 0.3 0
15 0 0 0.468 0
16 0 0 0.3 0
17 0 0 0.3 0
18 0 0 0.3 0
19 0 0 0.3 0
20 0 0 0.3 0
21 0 0 0.3 0
22 0 0 0.76 0
23 0 0 0.76 0
24 0 0 0.468 0

Atoms # full

1083 73 3 -0.4 9.952956069142243 4.997034119985832 6.471275766483242 0 2 2
1082 73 2 0.14 11.269674477341662 4.694323844971465 6.954836740992923 0 2 2
1086 73 6 0.06 12.267543283366688 5.066278025494341 5.122662849036336 0 2 2
3065 205 5 -0.18 9.964399385645997 9.306096465348412 10.97649587621303 -1 2 0
4504 301 4 0.14 7.1714205573452485 7.84161779061754 5.104053547246218 0 0 0
4511 301 11 0.03 7.177917469625991 8.527687886231533 4.210048292301196 0 0 0
4503 301 3 -0.4 5.89332125883587 7.846823922704618 5.686522888743502 0 0 0
4509 301 9 0.03 5.518683898138251 9.751718771069395 5.2443051800362674 0 0 0
2519 168 14 0.06 10.622980495791694 7.596132168955619 3.8774664695765466 3 -1 4
3064 205 4 0.14 9.013558719102122 8.162598569034849 10.574489676486309 -1 2 0
4515 301 15 0.06 8.079763491968386 9.154651416315303 6.741405672952935 0 0 0
4505 301 5 -0.18 8.13217371516193 8.170528677400485 6.239731711021185 0 0 0
4513 301 13 0.06 9.061547536432318 8.092366938861552 5.7219614734773305 0 0 0
4514 301 14 0.06 8.169321690103764 7.456987408947877 7.092795370208846 0 0 0
4502 301 2 0.14 4.993783943495303 8.8100193132217 5.206432631051214 0 0 0
1324 89 4 0.14 12.172825546588799 12.166619900146948 12.112158308201415 2 -1 0
1095 73 15 0.06 9.899832183327803 3.7900589195338363 8.76575052466415 0 2 2
1081 73 1 -0.18 12.433269494962586 5.447408815165241 6.1309603829999375 0 2 2
1092 73 12 0.03 8.045958908434772 4.396514009835976 6.513861154307957 0 2 2
1090 73 10 0.03 11.526127403634906 3.6393546368203347 7.0155742773625285 0 2 2
3070 205 10 0.03 7.009158566167958 6.148691055042626 12.063016861654571 -1 2 0
3072 205 12 0.03 9.559436892945396 7.216810936152192 10.569050025657134 -1 2 0
1334 89 14 0.06 12.708270549886096 10.623040458954943 10.774683205899453 2 -1 0
2541 170 6 0.06 4.847197471948419 6.333039558020815 3.9891314102165873 0 1 -1
1089 73 9 0.03 11.39664494140261 5.059452392854204 7.982132037727651 0 2 2
1242 83 12 0.03 12.646494248893834 9.341393197451696 5.241863385554287 -2 -1 1
4644 310 9 0.03 7.672971407807303 12.611118033495176 4.852404216909258 -4 1 0
3062 205 2 0.14 7.074994043025033 6.921513245141302 11.315778649509792 -1 2 0
3061 205 1 -0.18 5.766404996370312 7.676690626396798 11.252008119519335 -1 2 0
2983 199 13 0.06 5.280571902725734 6.34741159557767 8.189597156005975 1 0 1
1094 73 14 0.06 8.9317425778022 5.300910266962214 8.96730463299861 0 2 2
3069 205 9 0.03 7.178647005561475 6.492723701736076 10.325254117341252 -1 2 0
2544 170 9 0.03 6.609030995998733 4.570347834103714 4.6505725457382 0 1 -1
2984 199 14 0.06 4.710700627192 5.322508991505705 6.840197551660934 1 0 1
2985 199 15 0.06 5.567567595410016 4.5974437520630715 8.090547813969128 1 0 1
3074 205 14 0.06 10.597977081194212 9.739407954409401 10.158993756358498 -1 2 0
2975 199 5 -0.18 4.873307517834681 5.382079947942165 7.925980921338282 1 0 1
3063 205 3 -0.4 7.955479955856905 7.955996138498057 11.596458036632407 -1 2 0
3066 205 6 0.06 4.993334426320316 6.928455841294155 11.054411536572616 -1 2 0
2995 200 10 0.03 3.441175513382539 3.488315386984385 12.100842708613088 0 1 -1
3071 205 11 0.03 8.582071353422629 8.400630279455138 9.582738829935167 -1 2 0
2987 200 2 0.14 4.293107386447979 3.5494300310042215 12.746175884332509 0 1 -1
4512 301 12 0.03 7.502358241839485 6.881013781235525 4.761796984649938 0 0 0
3068 205 8 0.06 5.593109895901916 8.107836075678339 12.274766390749487 -1 2 0
2974 199 4 0.14 3.5870042634883643 5.2193816345863775 8.605038043308198 1 0 1
2536 170 1 -0.18 4.865460658012335 5.317047429845619 3.5394440400307965 0 1 -1
3073 205 13 0.06 9.42670873834759 10.16024094572887 11.37781547305851 -1 2 0
1088 73 8 0.06 12.51183368626161 6.504673479063532 6.157236878204689 0 2 2
2991 200 6 0.06 5.830115008150431 3.9500025344675356 11.128770315167847 0 1 -1
1085 73 5 -0.18 8.938298179968982 4.284270700974495 8.488694102850271 0 2 2
1084 73 4 0.14 9.037520154871865 4.165073097213654 7.004809997743639 0 2 2
3075 205 15 0.06 10.761890703461965 8.999268779336917 11.602065646167485 -1 2 0
45 3 15 0.06 7.286886119753792 16.028469000372837 8.869559153339187 1 2 -2
3536 236 11 0.03 3.971619357313791 13.626504989533313 12.135969217018687 -1 3 3
2577 172 12 0.03 11.117905912063316 4.415674442690883 11.418754257373568 2 1 -2
4641 310 6 0.06 10.05574611683385 14.011881681834728 3.4411939487494716 -4 1 0
1239 83 9 0.03 12.416329976742482 10.606427951877244 3.1724719772886614 -2 -1 1
4510 301 10 0.03 4.712196670911068 8.718664442299765 4.099816065455659 0 0 0
2542 170 7 0.06 3.986491945812869 4.719883381123677 3.867963715539606 0 1 -1
3973 265 13 0.06 3.222918324096512 9.120268208401273 9.961069008098942 6 -1 -2
2986 200 1 -0.18 5.598752093666684 3.2688919914469405 11.973816556842175 0 1 -1
2973 199 3 -0.4 3.2149381660488925 3.9245292288337605 8.271481802274764 1 0 1
3532 236 7 0.06 6.851512484923179 10.165402616278934 12.43897577395061 -1 3 3
4508 301 8 0.06 4.0066527893858055 9.248088763329243 6.979524637995937 0 0 0
4649 310 14 0.06 10.315312181173617 10.051626316624427 6.894567713660322 -4 1 0
2993 200 8 0.06 6.442182362603298 3.2250363941407953 12.73186857521483 0 1 -1
1243 83 13 0.06 12.385591184800518 11.361035585513555 6.261326232495614 -2 -1 1
3534 236 9 0.03 4.475969576710446 11.085610355423071 12.51965345453357 -1 3 3
4650 310 15 0.06 9.433348424927114 10.515409144674177 8.46112882625878 -4 1 0
4501 301 1 -0.18 3.7580862767805736 8.846587606017074 6.012351097190486 0 0 0
1331 89 11 0.03 11.677430460796678 11.33560861323299 12.65793236705016 2 -1 0
4506 301 6 0.06 3.40747242668904 7.789192855364524 6.152523601461992 0 0 0
2537 170 2 0.14 6.2624286754976755 4.685318900822769 3.632925105441548 0 1 -1
3527 236 2 0.14 5.345501395083504 11.694015863630277 12.702473884802403 -1 3 3
1326 89 6 0.06 9.760490861523934 14.802779650968898 10.606771392790668 2 -1 0
405 27 15 0.06 12.162273300582399 15.3689771362803 3.9703389706772603 0 3 0
38 3 8 0.06 4.051773003293198 12.136524444700896 6.102125538075398 1 2 -2
34 3 4 0.14 5.916502185090008 15.990060968444801 7.219006021647538 1 2 -2
2569 172 4 0.14 11.95458931430313 4.044064983100329 11.866539325362453 2 1 -2
2981 199 11 0.03 3.7831516725462797 5.414485676636188 9.675132912884512 1 0 1
4646 310 11 0.03 8.147911065186104 11.295248416078794 6.607656135739942 -4 1 0
4640 310 5 -0.18 9.96372723455433 10.872394947320563 7.56353567545156 -4 1 0
3535 236 10 0.03 5.558886976529899 12.045379956868857 11.688810300534701 -1 3 3
1328 89 8 0.06 8.462267492878805 13.65189551674816 10.402462769164611 2 -1 0
1329 89 9 0.03 9.498379871115908 12.3649701470686 12.5071814734081 2 -1 0
4645 310 10 0.03 8.545717188139474 14.055168786378989 5.438345843800086 -4 1 0
4639 310 4 0.14 9.006200555678477 11.885014299474673 6.874201860516443 -4 1 0
1327 89 7 0.06 8.567144711027751 14.65925170634449 11.76552615357864 2 -1 0
1323 89 3 -0.4 11.18515983350631 12.778194268218488 11.280862143513414 2 -1 0
1093 73 13 0.06 8.030025244479196 3.751867041583732 8.907037330432296 0 2 2
1321 89 1 -0.18 9.1530128885971 14.11137191477234 11.125519006895107 2 -1 0
33 3 3 -0.4 6.087946473404196 14.588076547013214 6.913412862896344 1 2 -2
4648 310 13 0.06 10.928213118937721 11.357473925229833 7.840779620967076 -4 1 0
4637 310 2 0.14 8.631556195490958 13.149712341032924 4.872478928958003 -4 1 0
4638 310 3 -0.4 9.515738249186654 12.33480883424461 5.59107648240516 -4 1 0
37 3 7 0.06 5.431116332456057 12.685903678481319 4.952384978939883 1 2 -2
3067 205 7 0.06 5.7608122493963485 8.444740732459248 10.435128015896382 -1 2 0
4647 310 12 0.03 8.527415982834942 12.671433288017635 7.565988460162208 -4 1 0
3563 238 8 0.06 11.296999961935542 15.37893815269055 6.384205900533573 0 1 -1
31 3 1 -0.18 5.019486373875987 12.622666188392097 5.97615195126175 1 2 -2
40 3 10 0.03 4.358420382267187 14.679704261851521 5.636767371971694 1 2 -2
36 3 6 0.06 5.802102834392693 12.168077556693865 6.508765809034328 1 2 -2
32 3 2 0.14 4.849181446317459 14.037920603489711 6.400749458733398 1 2 -2
3562 238 7 0.06 11.210563619128097 14.668038869445146 7.933564728105236 0 1 -1
39 3 9 0.03 4.1291871347940265 14.194344102311108 7.178862709310608 1 2 -2
1322 89 2 0.14 10.015603543896962 13.170266916679518 12.040110701169098 2 -1 0
3556 238 1 -0.18 11.257901515908658 15.584707479653973 7.463429733799006 0 1 -1
4636 310 1 -0.18 9.155591097514652 13.425218764190817 3.48198269903519 -4 1 0
2538 170 3 -0.4 6.158328238186607 3.4297221941996474 3.1222568981505687 0 1 -1
3348 224 3 -0.4 7.12173959093186 5.002460222031368 21.81090509638619 -4 -3 -1
1624 109 4 0.14 10.198546759608622 8.729370485468907 17.742700447399912 -1 1 1
4284 286 9 0.03 4.828950285118729 11.646437894336138 18.67418006168075 -1 -2 1
1631 109 11 0.03 10.980187423591602 9.194783593953645 18.41579975125532 -1 1 1
3360 224 15 0.06 6.582287162945033 7.997364059454664 20.558546517598632 -4 -3 -1
1625 109 5 -0.18 9.464416517083619 7.749557971787632 18.61183640640606 -1 1 1
4852 324 7 0.06 10.410183010767494 5.7048987056846325 16.831395258613217 2 4 -3
3714 248 9 0.03 3.984785367431731 4.371251760663235 17.144523578781207 1 1 0
3357 224 12 0.03 8.284611909681324 6.165667229043233 20.53604715409335 -4 -3 -1
1633 109 13 0.06 9.477084465161202 8.305270964457169 19.546472257926517 -1 1 1
1621 109 1 -0.18 9.825675628664204 9.78632011029049 14.689588425149617 -1 1 1
1634 109 14 0.06 10.190926289289813 6.93096768814215 18.806414782120388 -1 1 1
3356 224 11 0.03 6.637095266953584 5.692705197642816 20.027819183271987 -4 -3 -1
3706 248 1 -0.18 5.844875923306784 4.057791396068455 16.11768084596948 1 1 0
1630 109 10 0.03 10.955905662300381 10.863597973984087 16.136094786032896 -1 1 1
4280 286 5 -0.18 6.0429730672886635 8.334670902455503 16.739462772549103 -1 -2 1
1652 111 2 0.14 12.72138109070574 6.794146066929612 20.41041569177804 0 3 0
2576 172 11 0.03 11.596487198281569 3.769615112320186 12.829645853582136 2 1 -2
1660 111 10 0.03 12.066393412918186 5.981490309615664 20.063462716241684 0 3 0
1632 109 12 0.03 10.689886914918452 8.230122353710708 16.950771279937946 -1 1 1
3358 224 13 0.06 7.390026179580083 7.736057223728276 22.03135719513104 -4 -3 -1
4288 286 13 0.06 5.523083667404967 7.6710611476630906 17.376542827649658 -1 -2 1
1623 109 3 -0.4 9.353333606043975 9.700021353721839 17.21485780728856 -1 1 1
1665 111 15 0.06 9.868190572138023 7.289763181608476 21.87466737759521 0 3 0
801 54 6 0.06 7.964455424921376 9.874956155156575 20.042874822944672 -2 -2 0
1661 111 11 0.03 11.373232102283005 9.561833006819269 21.817506718223395 0 3 0
1628 109 8 0.06 10.108356572911536 8.748236664690491 14.916331649235206 -1 1 1
4855 324 10 0.03 10.20593149639846 3.4450001862339668 15.857873429805938 2 4 -3
3349 224 4 0.14 7.215986425228777 6.059519393391283 20.84404248893904 -4 -3 -1
4739 316 14 0.06 12.683387947339725 12.828619495846745 15.185835614102931 1 -3 -3
1654 111 4 0.14 11.751678083592624 8.52140812091611 21.81824585723712 0 3 0
4278 286 3 -0.4 4.633813883711884 10.167878517365018 17.091556684101537 -1 -2 1
3362 225 2 0.14 4.887379654895291 15.194031396465231 18.824947675100866 2 -1 -1
1622 109 2 0.14 9.879839436630807 10.485304447321337 16.05741151210924 -1 1 1
1635 109 15 0.06 8.49253310101447 7.453902980164023 18.33495703030291 -1 1 1
4289 286 14 0.06 7.038735571397687 8.103682816914857 16.718222930789278 -1 -2 1
1662 111 12 0.03 12.695650108347138 8.569206283798588 22.44676869509419 0 3 0
4848 324 3 -0.4 11.03637020334427 3.30129358951316 17.822945602136315 2 4 -3
3094 207 4 0.14 12.134379425078896 14.388958814944967 18.491906572448343 0 -3 1
3715 248 10 0.03 5.450807673929528 4.843736130154912 18.06451383235192 1 1 0
804 54 9 0.03 6.652865036693756 12.087199791212324 20.254994548255585 -2 -2 0
4290 286 15 0.06 5.691101285806411 8.18547163224638 15.69037614558139 -1 -2 1
3350 224 5 -0.18 6.635544926711603 7.320211005662607 21.38449979896381 -4 -3 -1
4853 324 8 0.06 11.60816963913549 5.646404051366836 15.548245745912318 2 4 -3
4286 286 11 0.03 6.436382208882465 10.069922632714196 18.055948884150723 -1 -2 1
4846 324 1 -0.18 11.415821017611298 5.182655194877741 16.511673117813018 2 4 -3
4733 316 8 0.06 11.825808771842926 10.96948251869578 19.712844763912514 1 -3 -3
3105 207 15 0.06 9.97261031258124 14.047654003404821 18.361465932620064 0 -3 1
1655 111 5 -0.18 10.654682791846716 7.7002173626245405 22.471674703010965 0 3 0
4287 286 12 0.03 6.590627865428079 10.274496041263433 16.372740899468596 -1 -2 1
4279 286 4 0.14 5.967763103370397 9.798386347083017 17.074493773644456 -1 -2 1
3526 236 1 -0.18 6.517281283888104 10.827593212737721 13.257969330029805 -1 3 3
1627 109 7 0.06 8.848340396029789 9.65859964970216 14.314790777592073 -1 1 1
1626 109 6 0.06 10.462857291866788 10.194933588262526 13.908319147391499 -1 1 1
4851 324 6 0.06 12.163438776550297 5.383277602386003 17.187441136177828 2 4 -3
3101 207 11 0.03 12.200191880211994 13.869337993427362 19.46180909696343 0 -3 1
3707 248 2 0.14 5.024679040123534 4.061018134761383 17.415432365919244 1 1 0
3713 248 8 0.06 6.866358284243282 3.7044138639264523 16.17707372770094 1 1 0
1259 84 14 0.06 3.8118459957830626 13.491591014662232 21.615337670328024 2 2 -2
3104 207 14 0.06 10.549603940905257 14.287601179930729 16.80400705898227 0 -3 1
3366 225 6 0.06 3.9768626235694917 15.820515617693024 16.94627395475592 2 -1 -1
3529 236 4 0.14 3.9828683394276037 13.571931238502206 13.221898545614541 -1 3 3
3531 236 6 0.06 7.392467736876485 11.469095015071357 13.487842609556632 -1 3 3
3095 207 5 -0.18 10.827726712718984 13.827679387157104 17.806164810492277 0 -3 1
3369 225 9 0.03 4.590020104357363 14.934041462102467 19.83609165614809 2 -1 -1
3103 207 13 0.06 10.995229468418854 12.80928515776178 17.643531613494662 0 -3 1
1653 111 3 -0.4 12.097215800805106 8.028997171532684 20.458493299590128 0 3 0
3711 248 6 0.06 5.774734741666534 4.966197690065699 15.572568168207372 1 1 0
3717 248 12 0.03 4.455586322409717 3.6202316685239557 19.967483852299548 1 1 0
1629 109 9 0.03 9.223414088777936 11.362283073710532 15.931163457981052 -1 1 1
4285 286 10 0.03 4.794532086456583 12.33925998830307 17.09621163461378 -1 -2 1
3537 236 12 0.03 4.252792846120588 14.556312278692594 13.477250497643485 -1 3 3
3374 225 14 0.06 7.944938876257081 13.929124559204975 15.666444656896026 2 -1 -1
3093 207 3 -0.4 12.050052372508546 15.77967552168552 18.803497656099296 0 -3 1
807 54 12 0.03 8.264398233987603 14.68097194852967 20.66135999831694 -2 -2 0
802 54 7 0.06 7.658315000454586 10.317137717478566 21.783545883519988 -2 -2 0
4277 286 2 0.14 4.444912295893729 11.480996214988883 17.67696924778858 -1 -2 1
3364 225 4 0.14 6.660666245959218 14.799324586047 17.363056572489953 2 -1 -1
412 28 7 0.06 3.5886687137988686 6.7863257107221795 18.88895035979158 2 3 1
3361 225 1 -0.18 3.6795826493838604 15.556662292376055 17.936384807526654 2 -1 -1
3371 225 11 0.03 7.3973245233572005 15.221099260498313 17.967365926742207 2 -1 -1
803 54 8 0.06 9.274852484718373 10.555503790545528 20.984244331864776 -2 -2 0
2988 200 3 -0.4 4.200637940340339 4.8220362542955755 13.302727697050447 0 1 -1
799 54 4 0.14 7.672207503241498 14.152112950858898 21.427713112828187 -2 -2 0
805 54 10 0.03 8.237953322463648 12.321894862803482 19.481113408740914 -2 -2 0
3528 236 3 -0.4 5.035363544712455 12.716983010998982 13.628414313471024 -1 3 3
1806 121 6 0.06 12.698941187788297 7.114742918771756 14.164190227194206 2 -3 0
796 54 1 -0.18 8.206069838342549 10.62702814855547 20.807150439547964 -2 -2 0
798 54 3 -0.4 8.09353717170813 12.806606226623638 21.487112498098202 -2 -2 0
3359 224 14 0.06 5.707761876331634 7.1038845183496075 21.881229264193923 -4 -3 -1
3372 225 12 0.03 6.201970631452603 15.579114828961142 16.695028775102003 2 -1 -1
1256 84 11 0.03 4.74807982654827 11.26284291724203 21.708574099174562 2 2 -2
3000 200 15 0.06 4.015519588567011 6.416231514914848 15.312723254785269 0 1 -1
3373 225 13 0.06 7.596547364026131 12.763268814008262 16.93824372592319 2 -1 -1
3375 225 15 0.06 6.314652961902929 13.242733772118404 15.84309878751542 2 -1 -1
806 54 11 0.03 6.618265827943583 14.354352212696734 21.089187541752654 -2 -2 0
797 54 2 0.14 7.715478114763528 11.998385921284582 20.382999322944265 -2 -2 0
3365 225 5 -0.18 7.158257469835988 13.61525823399793 16.446055249287006 2 -1 -1
3363 225 3 -0.4 5.769235552934559 14.245821208751206 18.3458458928693 2 -1 -1
3533 236 8 0.06 6.321647866384376 10.191954620533899 14.151767871192392 -1 3 3
4847 324 2 0.14 11.121865738059077 3.7197586382387366 16.455025028491402 2 4 -3
1332 89 12 0.03 12.53581725010323 12.85711893545123 12.84857324576135 2 -1 0
4854 324 9 0.03 12.021068662889498 3.2458797030787565 15.953562006773488 2 4 -3
3712 248 7 0.06 5.3337033008204715 3.2678402645773854 15.57914739554019 1 1 0
1330 89 10 0.03 10.398052474425437 13.81875630061709 12.835910434123516 2 -1 0
1578 106 3 -0.4 4.082633153113873 9.617306766373648 29.628212634227022 -1 0 -3
1577 106 2 0.14 4.2603512917509345 9.325261415257636 28.223843674097797 -1 0 -3
1663 111 13 0.06 10.138240307559872 8.387929446556978 23.083758907489006 0 3 0
3891 260 6 0.06 9.8554664999422 9.835548969996537 25.257485296558677 1 3 -1
3330 222 15 0.06 7.778785801670029 3.2952631300417097 31.363795723034055 0 1 1
1253 84 8 0.06 3.2891772621129522 8.442990309333311 24.765679572917566 2 2 -2
809 54 14 0.06 8.792469434174992 14.751616825921795 23.294151481203556 -2 -2 0
874 59 4 0.14 9.03551664039725 8.370725649286818 30.066195618119334 0 -1 1
881 59 11 0.03 8.300265464897862 7.720964901771496 30.4845636050317 0 -1 1
3329 222 14 0.06 8.395117890311438 5.01590372135361 30.811577713334 0 1 1
882 59 12 0.03 9.772422871434003 8.60232723878886 30.80223856793135 0 -1 1
3265 218 10 0.03 12.630411793651259 9.369996905063804 30.960658116721152 -3 0 2
885 59 15 0.06 9.015164470026193 7.668564944670108 28.062099741210478 0 -1 1
875 59 5 -0.18 9.636605633090527 7.599453947613124 28.940748093534935 0 -1 1
3352 224 7 0.06 7.967771489762251 3.3347583950173707 23.636453639590332 -4 -3 -1
1704 114 9 0.03 3.2204734574494016 15.416094805478833 30.292635190515966 5 -2 0
884 59 14 0.06 10.633012080288493 8.009304393970638 28.772310559376848 0 -1 1
3895 260 10 0.03 9.950926592175417 11.010251037852726 23.17239768727855 1 3 -1
1252 84 7 0.06 3.1613863329544634 8.396993986530429 23.011573677937722 2 2 -2
1696 114 1 -0.18 5.4401590871983245 15.809617385149176 30.39804612651346 5 -2 0
883 59 13 0.06 9.82595124514564 6.564852079644697 29.25498778667307 0 -1 1
3320 222 5 -0.18 8.574294660350937 3.9279764535055315 30.94448879047393 0 1 1
3319 222 4 0.14 9.79098413391715 3.67847349162755 31.85612557908227 0 1 1
873 59 3 -0.4 8.421405423307249 9.571449550155872 29.528206864731754 0 -1 1
880 59 10 0.03 8.323496692531094 10.495316956452022 31.469409589892706 0 -1 1
1255 84 10 0.03 5.34579584573625 9.722505169527334 24.686656331367534 2 2 -2
3351 224 6 0.06 7.5252004105918235 4.234772194603789 25.01288379988006 -4 -3 -1
1587 106 12 0.03 3.2964655262202647 11.444478742466083 29.33794801599882 -1 0 -3
3355 224 10 0.03 6.757051703921817 6.072510123500713 23.539340169440116 -4 -3 -1
3896 260 11 0.03 11.504723375530533 13.686017196370805 23.716543456897135 1 3 -1
3347 224 2 0.14 7.399668063867857 5.301332346788891 23.15414559092306 -4 -3 -1
3889 260 4 0.14 11.897383166117878 12.664445345212233 23.657650877144615 1 3 -1
1585 106 10 0.03 4.463080625683297 10.324867475617491 27.822486769379836 -1 0 -3
831 56 6 0.06 11.35032419256959 3.24499536849339 27.406386861809565 2 1 0
3353 224 8 0.06 6.215005714810697 3.74882209997197 23.7946478199474 -4 -3 -1
3258 218 3 -0.4 12.593012793490134 10.357719855444287 29.22280492043988 -3 0 2
3159 211 9 0.03 8.408444874325237 15.52610336593515 28.62647989721662 1 -3 -1
1248 84 3 -0.4 4.00098207076987 10.771118715743153 23.62321080016223 2 2 -2
3346 224 1 -0.18 7.255716471149919 4.050487708209975 23.929799736700105 -4 -3 -1
3328 222 13 0.06 8.694196277415369 3.4527399309629483 29.941405015881948 0 1 1
1254 84 9 0.03 5.480243668181488 9.666641037986764 22.945595906209412 2 2 -2
916 62 1 -0.18 5.122664557484594 5.003665700367442 29.581156359787315 -1 -3 -1
921 62 6 0.06 6.116966166351714 4.561061005853323 29.633630211854612 -1 -3 -1
832 56 7 0.06 11.50953439721503 4.6199733180578 28.394310356192314 2 1 0
3892 260 7 0.06 8.261599704632568 10.457486492079738 24.934063090200198 1 3 -1
826 56 1 -0.18 11.44806364544101 3.5231768718830754 28.434116093399062 2 1 0
1246 84 1 -0.18 3.855437149099457 8.454034683098769 23.86990645105582 2 2 -2
3897 260 12 0.03 11.87385159972536 12.214766737140426 22.638240369019123 1 3 -1
1583 106 8 0.06 6.222526333807753 8.513327592527354 28.65432830391426 -1 0 -3
1576 106 1 -0.18 5.348629414252802 8.309632705614593 28.055409252334808 -1 0 -3
1581 106 6 0.06 5.608931834914662 8.222497220173722 26.958670011841903 -1 0 -3
1582 106 7 0.06 5.022907180413413 7.304981370147201 28.319498721754613 -1 0 -3
600 40 15 0.06 11.156888170929074 12.298609260541427 29.108471656041278 2 3 -1
3894 260 9 0.03 9.153043660933768 12.38475061830086 23.93304173517859 1 3 -1
1247 84 2 0.14 4.797222178465361 9.660314052273453 23.76915851070289 2 2 -2
1700 114 5 -0.18 4.680349286714447 14.163660511406967 26.337402937719123 5 -2 0
3257 218 2 0.14 12.379371803609287 10.333141327877588 30.635033311646257 -3 0 2
1251 84 6 0.06 4.377291925465046 7.478212345018546 23.786287469541474 2 2 -2
872 59 2 0.14 7.7642872044814 10.297459502934938 30.53328666241431 0 -1 1
3156 211 6 0.06 8.407778031859662 14.399912669554464 26.2504894745836 1 -3 -1
1249 84 4 0.14 4.487657772392674 11.754002904021354 22.664184129286557 2 2 -2
1710 114 15 0.06 3.6843129523123386 14.371403796746714 26.176100620901163 5 -2 0
3151 211 1 -0.18 8.834560335296478 15.467997035845366 26.52661954110702 1 -3 -1
587 40 2 0.14 12.323701404688382 15.786334188338264 29.31379085044503 2 3 -1
876 59 6 0.06 6.7013641776309445 12.125899746271987 30.917957082575015 0 -1 1
1260 84 15 0.06 3.4872529042952762 13.469081209345571 23.442468804743765 2 2 -2
3354 224 9 0.03 8.379021887128172 5.7678425394404425 23.257603027511646 -4 -3 -1
1707 114 12 0.03 5.900528386997103 14.10585116791012 28.09291341512107 5 -2 0
3887 260 2 0.14 9.864627615128121 11.562848280750522 24.06699344447151 1 3 -1
599 40 14 0.06 10.073377254676242 12.840609780625089 27.901915252200208 2 3 -1
871 59 1 -0.18 7.395821508293844 11.742159462059849 30.152676958143196 0 -1 1
1257 84 12 0.03 5.351040154833755 12.156610958090072 23.10826482893324 2 2 -2
878 59 8 0.06 8.306169537762138 12.315628859737734 30.02854604571935 0 -1 1
877 59 7 0.06 6.989324847735403 11.670693190503508 29.14994210350232 0 -1 1
1698 114 3 -0.4 4.1258203519443954 15.197703536426411 28.473113809488634 5 -2 0
810 54 15 0.06 7.003809123662564 14.28899915140561 23.46645032964304 -2 -2 0
588 40 3 -0.4 11.732185029433113 14.527011701721694 29.196422035018983 2 3 -1
1250 84 5 -0.18 3.492536268371853 12.923730972111585 22.503897302869706 2 2 -2
598 40 13 0.06 11.32127573342612 11.77961656612037 27.439547591897043 2 3 -1
589 40 4 0.14 12.057216214500464 13.859386596751914 28.034911801314436 2 3 -1
1709 114 14 0.06 5.165182676201062 15.04151886346138 25.974691733927006 5 -2 0
3893 260 8 0.06 9.247674062118298 11.261745432379124 26.194772375280813 1 3 -1
917 62 2 0.14 4.084446629601374 4.1586491558120775 30.300847099115447 -1 -3 -1
597 40 12 0.03 11.985765543482081 14.353488121922341 27.056662080341663 2 3 -1
1705 114 10 0.03 4.401854530698386 13.99020546407553 30.204473612223953 5 -2 0
1706 114 11 0.03 4.421720672131643 13.209738362065602 28.17113539887666 5 -2 0
3264 218 9 0.03 11.315421201625993 10.445567768019698 30.800399910068403 -3 0 2
938 63 8 0.06 6.451473984089152 6.666584265156456 31.98236891999126 -2 1 2
833 56 8 0.06 10.508284814561566 3.3140864679785 28.902692327103512 2 1 0
3888 260 3 -0.4 11.12813983544063 11.990703695382392 24.56883220398881 1 3 -1
923 62 8 0.06 4.863565463737973 5.1318864962335535 28.536764418501946 -1 -3 -1
1708 114 13 0.06 5.007707968173769 13.252603349024781 25.903221450772826 5 -2 0
590 40 5 -0.18 11.100093119768744 12.608337715348238 28.123416092837026 2 3 -1
879 59 9 0.03 6.8467225641130876 9.878383884804464 30.800016845985596 0 -1 1
1699 114 4 0.14 4.882880637687838 14.17715613438459 27.831113216172753 5 -2 0
3886 260 1 -0.18 9.256387348039697 10.735489147696605 25.20646172245022 1 3 -1
922 62 7 0.06 5.1848886923421755 6.03223199120216 29.93311132496162 -1 -3 -1
1584 106 9 0.03 3.3620951057441193 9.043583606300924 27.748167994627018 -1 0 -3
1697 114 2 0.14 4.20027546619059 15.011498301752905 29.879165233534074 5 -2 0
1703 114 8 0.06 5.493776231361892 15.833622382530187 31.471649385752947 5 -2 0
925 62 10 0.03 4.437989484172113 3.9429283153267884 31.284885838449483 -1 -3 -1
1702 114 7 0.06 6.353279110647087 15.289775394404764 30.008891990964 5 -2 0
1588 106 13 0.06 3.9890034949951874 10.786031732834356 31.822604148639563 -1 0 -3
3157 211 7 0.06 9.930352716454767 15.521276315504254 26.56527238650421 1 -3 -1
3404 227 14 0.06 12.794149696313236 15.324505116661193 24.359599243109567 -1 2 2
800 54 5 -0.18 7.796518334663482 14.716129579088168 22.86874242298668 -2 -2 0
1664 111 14 0.06 11.109116365292424 6.867345063131484 22.967867724444435 0 3 0
3326 222 11 0.03 10.620438126490606 4.41647128014637 31.557575022721377 0 1 1
808 54 13 0.06 7.5405283069699385 15.753986726612307 22.703762884837346 -2 -2 0
4364 291 14 0.06 3.390379627749166 4.459496030628731 38.812294044738266 0 -2 -2
933 63 3 -0.4 8.530354905215749 6.240084996678897 33.69547715817216 -2 1 2
2511 168 6 0.06 8.744436151226413 3.9516390330801956 37.70870459412116 3 -1 3
931 63 1 -0.18 6.245967498059779 6.266748596857719 32.993490857693956 -2 1 2
2506 168 1 -0.18 9.14422962169407 4.908090728747237 38.033236224629604 3 -1 3
2512 168 7 0.06 10.033494851753609 5.097055988513594 37.48627990397466 3 -1 3
932 63 2 0.14 7.263806158559422 6.901298119862931 33.964030759632664 -2 1 2
2513 168 8 0.06 8.445182558510147 5.782065766605902 37.8349005081876 3 -1 3
936 63 6 0.06 5.255959801788766 6.5050314508933 33.24924049084647 -2 1 2
940 63 10 0.03 7.183809981035688 7.98710972579509 33.76046594436936 -2 1 2
2520 168 15 0.06 10.153453257040058 8.1001443761382 41.03289843370895 3 -1 3
2508 168 3 -0.4 9.884571149275267 6.096882116594928 39.92698999067596 3 -1 3
2507 168 2 0.14 9.34868672910787 4.894048468186024 39.53382907970867 3 -1 3
1453 97 13 0.06 6.025250097637008 12.21480806891927 39.10753935964004 -1 0 1
4298 287 8 0.06 12.692680453043955 8.744538129138014 36.89295178869459 -3 2 3
2432 163 2 0.14 4.609086470383349 12.142383238370094 35.66059156664723 2 -1 -3
4299 287 9 0.03 11.955886435753541 7.010154925871362 38.565704600683006 -3 2 3
790 53 10 0.03 8.019670813969327 7.5730305757269445 40.03505528978886 0 -1 -1
939 63 9 0.03 7.040484247356527 6.743589389066713 35.07164309719839 -2 1 2
942 63 12 0.03 9.690553070386178 7.7284647077426705 34.28162189397147 -2 1 2
941 63 11 0.03 9.252757919781608 6.6326966898702056 35.659978883151325 -2 1 2
787 53 7 0.06 5.152190261418486 7.248681952098215 40.05780977052383 0 -1 -1
4365 291 15 0.06 4.668572727096148 3.5039975373048233 39.254649075208576 0 -2 -2
935 63 5 -0.18 10.89105001026422 5.990736154376979 34.41941041328036 -2 1 2
4301 287 11 0.03 12.345459565710042 4.451515376982973 37.9374755212327 -3 2 3
2437 163 7 0.06 4.339607780192356 13.368614668263222 33.74802228854443 2 -1 -3
934 63 4 0.14 9.575487843114974 6.723724615256404 34.57698889165334 -2 1 2
784 53 4 0.14 8.840498397715834 9.431957182495598 38.394699698106535 0 -1 -1
783 53 3 -0.4 7.635536833059151 9.32221490532919 39.093606680685426 0 -1 -1
2442 163 12 0.03 5.583061916559811 10.016504118780624 36.4450218587713 2 -1 -3
945 63 15 0.06 10.812059799651955 4.940439782582445 34.59163226621547 -2 1 2
789 53 9 0.03 7.340771805092541 7.385270501104768 38.355701323738515 0 -1 -1
782 53 2 0.14 7.231448968959345 7.973965080902685 39.35917005991489 0 -1 -1
731 49 11 0.03 9.057342665757076 15.315997702816265 35.02558427182424 -4 2 1
788 53 8 0.06 5.103048580164636 8.800656411271543 39.22276398556815 0 -1 -1
781 53 1 -0.18 5.7572480245583915 8.178186551649627 39.85316052451377 0 -1 -1
791 53 11 0.03 8.87729863726835 9.086467475943717 37.3860915159524 0 -1 -1
2431 163 1 -0.18 3.8468738046027555 13.091388863287785 34.68610968907605 2 -1 -3
4356 291 6 0.06 3.7076428365101877 3.284155351471646 35.09912061165592 0 -2 -2
271 19 1 -0.18 10.623739032502057 15.17522065515704 39.12920854109581 -1 -3 1