LAMMPS data file via write_data, version 29 Sep 2021, timestep = 1000000

6144 atoms
12 atom types
6144 bonds
12 bond types
9216 angles
18 angle types
12288 dihedrals
24 dihedral types
3072 impropers
6 improper types

-0.9693176394564391 43.96931763947267 xlo xhi
-0.9693176394564391 43.96931763947267 ylo yhi
-0.9693176394564391 43.96931763947267 zlo zhi

Masses

1 12.011
2 12.011
3 12.011
4 12.011
5 12.011
6 12.011
7 18.998
8 18.998
9 18.998
10 18.998
11 18.998
12 18.998

Pair Coeffs # lj/cut/coul/long/omp

1 0.07 3.55
2 0.07 3.55
3 0.07 3.55
4 0.07 3.55
5 0.07 3.55
6 0.07 3.55
7 0.061 2.85
8 0.061 2.85
9 0.061 2.85
10 0.061 2.85
11 0.061 2.85
12 0.061 2.85

Bond Coeffs # harmonic/omp

1 469 1.4
2 469 1.4
3 469 1.4
4 469 1.4
5 469 1.4
6 420 1.354
7 420 1.354
8 420 1.354
9 420 1.354
10 420 1.354
11 420 1.354
12 469 1.4

Angle Coeffs # harmonic/omp

1 63 120
2 63 120
3 63 120
4 63 120
5 80 120
6 80 120
7 80 120
8 80 120
9 80 120
10 80 120
11 80 120
12 80 120
13 80 120
14 80 120
15 63 120
16 80 120
17 63 120
18 80 120

Dihedral Coeffs # opls/omp

1 0 7.25 0 0
2 0 7.25 0 0
3 0 7.25 0 0
4 0 7.25 0 0
5 0 7.25 0 0
6 0 7.25 0 0
7 0 7.25 0 0
8 0 7.25 0 0
9 0 7.25 0 0
10 0 7.25 0 0
11 0 7.25 0 0
12 0 7.25 0 0
13 0 7.25 0 0
14 0 7.25 0 0
15 0 7.25 0 0
16 0 7.25 0 0
17 0 7.25 0 0
18 0 7.25 0 0
19 0 7.25 0 0
20 0 7.25 0 0
21 0 7.25 0 0
22 0 7.25 0 0
23 0 7.25 0 0
24 0 7.25 0 0

Improper Coeffs # cvff/omp

1 1.1 -1 2
2 1.1 -1 2
3 1.1 -1 2
4 1.1 -1 2
5 1.1 -1 2
6 1.1 -1 2

Atoms # full

100 9 4 0.13 4.395807716245337 7.8205709587906 4.230298846259066 0 0 0
101 9 5 0.13 4.526968409870371 7.54053118484038 2.875640954788913 0 0 0
112 10 4 0.13 2.147738314031869 5.952991694327496 9.229036335874678 0 0 0
116 10 8 -0.13 2.879768394702321 4.87911014949335 5.807445560481498 0 0 0
92 8 8 -0.13 -0.21927605586628285 6.866397234472926 -0.23053501543835084 0 0 1
11 1 11 -0.13 3.6515617876608264 4.54288207441756 2.166090825334402 0 0 0
21 2 9 -0.13 2.4473301200505713 1.8738249656734438 6.439725997176288 0 0 0
22 2 10 -0.13 1.0934434145841494 1.9240046944988176 8.814628262576205 0 0 0
109 10 1 0.13 3.9498494811809426 4.294132393385251 7.847166505110544 0 0 0
103 9 7 -0.13 1.1980032029177252 8.348020481777315 1.6273918267357244 0 0 0
7 1 7 -0.13 -0.21560519418443025 3.2142094285393092 4.645672438670603 0 0 0
91 8 7 -0.13 0.8090852973766247 4.429150073080537 0.2558459972981701 0 0 1
98 9 2 0.13 2.085637888292202 8.48502740085019 3.8025938602478875 0 0 0
5 1 5 0.13 2.8175280535487297 3.489655463205021 2.560427220817264 0 0 0
1 1 1 0.13 0.8517407093853622 2.862869346294065 3.8729354270765066 0 0 0
108 9 12 -0.13 3.6659259046510693 7.690574205676454 0.603413221391346 0 0 0
8 1 8 -0.13 0.18477620226329372 0.5833808135123866 3.888150482769233 0 0 0
102 9 6 0.13 3.464525119886985 7.8138972284859145 1.9456967843723934 0 0 0
85 8 1 0.13 1.4089241939063402 5.241538567716497 -0.718370795111665 0 0 1
6 1 6 0.13 1.7312772635560738 3.8103019884235065 3.3976102349199544 0 0 0
117 10 9 -0.13 1.1841418104273123 6.543247457535209 7.158287071838163 0 0 0
97 9 1 0.13 2.2252194113308033 8.236366910426991 2.4314669985554658 0 0 0
4 1 4 0.13 3.0183292508260307 2.144155264105347 2.1359201665182597 0 0 0
9 1 9 -0.13 2.255889240819283 -0.0907716199160219 2.33512130560234 0 0 0
16 2 4 0.13 1.5854746956637538 0.7614333908990865 8.33002227405576 0 0 0
17 2 5 0.13 1.387713658985216 -0.38634744642778873 9.148982654774553 0 0 0
99 9 3 0.13 3.192950573806728 8.367245186370418 4.699332126150224 0 0 0
3 1 3 0.13 2.174961936325464 1.1521703545717719 2.6798395661920655 0 0 0
110 10 2 0.13 2.9826474524780187 4.976295028343863 7.101791190114118 0 0 0
14 2 2 0.13 2.9093292456011812 -0.4819646693371621 6.685054655300065 0 0 0
2 1 2 0.13 1.082449523739823 1.5417075051335325 3.5031329444248396 0 0 0
86 8 2 0.13 0.9159432641595671 6.529054309609277 -0.9187359907442023 0 0 1
215 18 11 -0.13 4.3273397115051555 8.804492648022855 10.21343878338427 0 0 0
12 1 12 -0.13 1.4840772820678452 5.108064393492091 3.629615339349879 0 0 0
5493 458 9 -0.13 -0.3583561875702902 3.806771064528081 7.472253845697437 1 0 0
5590 466 10 -0.13 -0.22335903776912025 9.544888834017204 8.033941443912456 1 0 0
114 10 6 0.13 4.1290562673618565 4.445280228405366 9.202231618228787 0 0 0
111 10 3 0.13 2.108785164846587 5.844024958644593 7.800626567484871 0 0 0
15 2 3 0.13 2.30043942526223 0.7312932284999403 7.078838297176584 0 0 0
113 10 5 0.13 3.1245600283340185 5.248928396347657 9.937075134451826 0 0 0
6141 512 9 -0.13 0.5310912002125023 0.21728869522697902 -0.06196892676497742 1 1 1
209 18 5 0.13 3.5317925833024812 9.857440342985843 9.793273232671712 0 0 0
20 2 8 -0.13 3.7712422907527667 -0.5946768583107751 5.614110828822547 0 0 0
104 9 8 -0.13 0.8221849335554079 8.760763428342539 4.281766001109604 0 0 0
105 9 9 -0.13 3.03900442475143 8.592525164732837 6.088300176525688 0 0 0
118 10 10 -0.13 1.3820161014267853 6.880089080444352 9.810921333994214 0 0 0
10 1 10 -0.13 4.015402550768314 1.6968587093730005 1.3460872912716506 0 0 0
96 8 12 -0.13 3.170430013683921 3.622193924381958 -0.8920195314649253 0 0 1
28 3 4 0.13 2.92589359053372 1.6796829870741674 13.295529399090405 0 0 0
139 12 7 -0.13 0.8477214424139297 6.194565865754229 21.431261887515042 0 0 0
29 3 5 0.13 1.7784569996171862 2.377231122638206 13.005800954771196 0 0 0
133 12 1 0.13 1.5926352271867246 5.093199264698766 21.19329776064421 0 0 0
131 11 11 -0.13 0.8967368352738745 8.137294958655083 16.678335601130883 0 0 0
27 3 3 0.13 3.363152292040005 1.5613683479972855 14.637291586567484 0 0 0
36 3 12 -0.13 -0.2898257530345755 3.4196139618034476 13.754934597984272 0 0 0
5492 458 8 -0.13 -0.4534084006719349 3.9659605790919468 10.269974340451549 1 0 0
127 11 7 -0.13 4.074414030714692 9.246532009008703 13.283498487255128 0 0 0
232 20 4 0.13 3.554675393336212 9.040573590174976 18.873404483362975 0 0 0
143 12 11 -0.13 3.9216090573438676 3.665872636550441 18.748490250704805 0 0 0
33 3 9 -0.13 4.488860164050863 0.8567456410525294 14.907793536645295 0 0 0
129 11 9 -0.13 3.4693374184174894 4.664423844406409 14.402681784115812 0 0 0
130 11 10 -0.13 1.626957742814036 5.509830011964676 16.44788794784006 0 0 0
136 12 4 0.13 2.817766922339688 2.613621999762618 20.577622795684466 0 0 0
122 11 2 0.13 3.7357832927457695 6.949361085294616 13.845751010516576 0 0 0
31 3 7 -0.13 0.6047977723843694 3.2259664890184663 16.39848041496575 0 0 0
238 20 10 -0.13 4.356943386625058 8.961246414327881 17.773317410740965 0 0 0
119 10 11 -0.13 3.1086390773072257 5.245805421228388 11.270992872484246 0 0 0
34 3 10 -0.13 3.732938819537428 1.1216832834914312 12.336573557673441 0 0 0
35 3 11 -0.13 1.3222717776618094 2.4737892361340927 11.706882701522384 0 0 0
138 12 6 0.13 2.4139793469710633 4.974556436813176 20.112498416843053 0 0 0
48 4 12 -0.13 0.8844590302539497 -0.6894668244433652 17.301680235990077 0 0 0
124 11 4 0.13 2.2088886613246164 6.361645782826754 15.629788765336658 0 0 0
144 12 12 -0.13 2.618576544729656 6.0426433317215995 19.325339820235474 0 0 0
32 3 8 -0.13 2.8436204151817615 1.9878923571713885 16.998748180536836 0 0 0
231 20 3 0.13 3.8467688164893152 8.415047620790613 20.068180672742994 0 0 0
5616 468 12 -0.13 -0.5138316667552583 7.696960805628495 19.36371739789967 1 0 0
121 11 1 0.13 3.368336638410665 8.325929541640235 13.941878851783192 0 0 0
214 18 10 -0.13 2.024820205033496 9.511110116637898 11.562785790176735 0 0 0
25 3 1 0.13 1.2839986607626694 2.70836585444237 15.36615609194265 0 0 0
26 3 2 0.13 2.50671073098821 2.0699918241264945 15.70173774950391 0 0 0
126 11 6 0.13 2.42906608425607 8.689798481913186 14.894526371972164 0 0 0
30 3 6 0.13 0.9103842831171063 2.8735234936517657 14.024605863163092 0 0 0
137 12 5 0.13 3.0724086344197383 3.7682373284835835 19.806898270396285 0 0 0
123 11 3 0.13 3.1769406233810082 5.978190511682743 14.645157855394201 0 0 0
142 12 10 -0.13 3.4154104825243747 1.3976886556498687 20.352183846028613 0 0 0
125 11 5 0.13 1.8654723207995159 7.737808548534141 15.751137408074648 0 0 0
229 20 1 0.13 1.972892995669092 9.58711752333895 21.09889025563376 0 0 0
132 11 12 -0.13 1.9378398109004817 9.987419506825397 14.90206278873572 0 0 0
5508 459 12 -0.13 -0.5406855867775433 7.013641485673657 13.474360617167465 1 0 0
233 20 5 0.13 2.4988835925206887 10.028001968334973 18.7948482644486 0 0 0
230 20 2 0.13 3.0072845165162083 8.722004877480138 21.18059143530163 0 0 0
208 18 4 0.13 2.3499802703430044 10.206204975139936 10.430702780131945 0 0 0
43 4 7 -0.13 0.009054255818986334 -0.9049526463438009 20.028151579481364 0 0 0
23 2 11 -0.13 0.6935007467891774 -0.41359133206394516 10.31573483004785 0 0 0
56 5 8 -0.13 4.557003886858913 0.4232980448271946 23.578769045723597 0 0 0
836 70 8 -0.13 2.777133957088306 2.1334510062874936 30.997124882737317 0 0 0
159 14 3 0.13 3.2103641533555374 7.524905542927109 32.013425291886136 0 0 0
64 6 4 0.13 -0.5168012763516586 3.183438937322541 29.740497861683235 0 0 0
1020 85 12 -0.13 3.995689379514742 9.36374898707929 25.57717522900344 0 0 0
158 14 2 0.13 2.3010728850393853 8.163382148415696 31.144365705263972 0 0 0
917 77 5 0.13 3.2971247960037138 5.746900896394334 26.382606452635358 0 0 0
923 77 11 -0.13 2.0622350672393224 5.298192490183388 26.594616729282553 0 0 0
918 77 6 0.13 4.267784450518443 5.910670633361426 27.368483909579282 0 0 0
154 13 10 -0.13 -0.584716287506696 6.893414313453942 28.726914041687575 0 0 0
830 70 2 0.13 4.072060073592887 2.50362970721295 31.041383188326456 0 0 0
70 6 10 -0.13 -0.0015873683797987814 3.694041603496676 28.636717685114533 0 0 0
63 6 3 0.13 -0.42789367824932034 3.853547802144358 30.924797616564927 0 0 0
6130 511 10 -0.13 -0.5195492696642114 -0.11211969054698823 32.45095309722104 1 1 0
155 13 11 -0.13 0.723657296287445 8.03578914694274 26.676835837989323 0 0 0
156 13 12 -0.13 0.021278004080729662 7.182364102125159 23.952543730767324 0 0 0
51 5 3 0.13 2.8522482163268292 1.3136002331439336 25.114106742128378 0 0 0
157 14 1 0.13 1.0180278272107848 8.528346786714721 31.58025721320213 0 0 0
922 77 10 -0.13 2.6851696130145983 5.848502820850702 24.135654251683814 0 0 0
149 13 5 0.13 -0.31922329869454824 7.177130609074994 26.38015162682079 0 0 0
140 12 8 -0.13 0.481174581727855 4.12971130432257 23.074827687036905 0 0 0
236 20 8 -0.13 3.362913307442618 8.125465054550222 22.36098284539897 0 0 0
52 5 4 0.13 1.9675870862034648 1.092998485673689 26.199136017281727 0 0 0
69 6 9 -0.13 0.3402663770627443 4.92795336472896 31.001000139689033 0 0 0
59 5 11 -0.13 0.9020803142819986 -0.4560375815883154 27.68605845333091 0 0 0
50 5 2 0.13 3.582926071852407 0.20844651374825385 24.52359645196103 0 0 0
235 20 7 -0.13 1.311897859506093 9.931261267271658 22.17084164637709 0 0 0
164 14 8 -0.13 2.653106126001118 8.202825623584562 29.799523543574015 0 0 0
924 77 12 -0.13 4.007257948732847 5.531049655419254 28.570403047721285 0 0 0
163 14 7 -0.13 0.16550744148727636 9.019991685016262 30.578001071123012 0 0 0
150 13 6 0.13 -0.6034132552217479 6.68242700506019 25.097080973100816 0 0 0
57 5 9 -0.13 3.0591394713697495 2.6258348988230824 24.72131650090241 0 0 0
58 5 10 -0.13 1.4668244765089549 2.1159597220472026 26.937103742229098 0 0 0
134 12 2 0.13 1.3290274229928176 3.989808175040701 21.998578331837784 0 0 0
53 5 5 0.13 1.8232468398379478 -0.2364522834013334 26.701008047608532 0 0 0
165 14 9 -0.13 4.390902498765312 6.956333279299582 31.566570292574728 0 0 0
141 12 9 -0.13 1.5524773461204253 1.5523520301075346 22.39839728613124 0 0 0
916 77 4 0.13 3.6385678599742235 5.970708283291688 25.06028630869205 0 0 0
835 70 7 -0.13 3.9966304163007047 2.1128669454368305 28.68814562417397 0 0 0
5433 453 9 -0.13 -0.3426283791118986 -0.9395438356859288 24.466236350136505 1 0 0
135 12 3 0.13 1.9354866611934574 2.6726307537141287 21.70322413187234 0 0 0
148 13 4 0.13 -0.9039855842086695 6.5376206502468746 27.469734114494866 0 0 0
167 14 11 -0.13 1.0827672833336393 7.502484737270479 35.109719763461015 0 0 0
77 7 5 0.13 2.770037248751288 2.629558646576483 36.92842908958935 0 0 0
74 7 2 0.13 1.9247380588805663 4.4833137500668165 38.89614826369672 0 0 0
75 7 3 0.13 1.5157130457767765 4.659656474611929 37.5707531719805 0 0 0
940 79 4 0.13 0.19676539168121465 8.477774589064765 38.52961281375099 0 0 0
160 14 4 0.13 2.7488418550076115 7.336127325391559 33.38127174011399 0 0 0
942 79 6 0.13 -0.3896634463176756 9.7920062600639 36.561941291456826 0 0 0
93 8 9 -0.13 1.0366534424054672 8.735858105108626 42.96462799607669 0 0 0
88 8 4 0.13 2.677650042461395 7.004380371660504 42.50710279172486 0 0 0
1716 143 12 -0.13 4.559226952352473 6.880855661807939 39.38789143287183 0 0 0
764 64 8 -0.13 4.42501542374939 -0.28716010557741833 40.68301091647359 0 1 0
162 14 6 0.13 0.611391672870351 8.390211811042033 32.88517398632328 0 0 0
837 70 9 -0.13 3.954214668276178 3.111246234559254 33.398788847808845 0 0 0
90 8 6 0.13 2.6723717921343866 4.887033830269687 43.72581059516875 0 0 0
759 64 3 0.13 4.500729689721176 -0.31865047781017886 43.111001935548906 0 1 0
94 8 10 -0.13 3.240962212620773 7.889143957921147 41.65665226368831 0 0 0
95 8 11 -0.13 4.55705230436447 5.678884088201928 42.32334430340569 0 0 0
1712 143 8 -0.13 3.8064851853946857 9.634261437681243 35.40366131466644 0 0 0
1711 143 7 -0.13 3.2590143688004964 7.387250612696508 36.774425121594064 0 0 0
6122 511 2 0.13 -0.7361105544881544 -0.5731679851251621 36.17437755975375 1 1 0
6142 512 10 -0.13 1.2111324117020015 2.1852489866391647 43.05474280745441 1 1 0
78 7 6 0.13 3.1106596703144334 2.4444224712697658 38.25221737001311 0 0 0
6136 512 4 0.13 0.17507923467870357 1.3397729520097705 42.796279320157765 1 1 0
84 7 12 -0.13 3.9108347818236995 1.3838186778634691 38.672159249954156 0 0 0
79 7 7 -0.13 2.9853735862026394 3.062544395694222 40.54885150646429 0 0 0
87 8 3 0.13 1.4822692973609524 7.426498458010665 43.11736159029044 0 0 0
6124 511 4 0.13 -0.8501256884551721 -0.5843019538876644 33.704990606945074 1 1 0
947 79 11 -0.13 1.69516518564767 10.189345946283034 37.6237756331919 0 0 0
946 79 10 -0.13 1.0738420081247142 8.119805518287862 39.52037881304474 0 0 0
76 7 4 0.13 1.9470724129852437 3.7444176217332945 36.53276434361418 0 0 0
83 7 11 -0.13 3.1949178934950275 1.8097039918215203 35.9150219704363 0 0 0
6129 511 9 -0.13 0.7227651267998987 0.8264912572446379 35.004202899209766 1 1 0
73 7 1 0.13 2.684339770288181 3.3161757511884984 39.26410668477948 0 0 0
80 7 8 -0.13 1.5007364395130889 5.384233962746476 39.81836136808198 0 0 0
6143 512 11 -0.13 -0.0768349234447655 2.4756768657762787 40.70704952415404 1 1 0
89 8 5 0.13 3.348517893780877 5.803347584681449 42.86598516687466 0 0 0
81 7 9 -0.13 0.7359999386040728 5.726844967813608 37.20195450215959 0 0 0
82 7 10 -0.13 1.50968773763221 3.9392160391848012 35.26533568214063 0 0 0
166 14 10 -0.13 3.5704794567397027 6.6990182168333705 34.253340341206375 0 0 0
6123 511 3 0.13 -0.3484423009449932 -0.019546238376968117 34.9403658652591 1 1 0
6128 511 8 -0.13 -0.24066227009450158 -0.06621012557866679 37.34032928529762 1 1 0
941 79 5 0.13 0.5461438364796085 9.449423496904704 37.57652896663536 0 0 0
161 14 5 0.13 1.5285110640046131 7.823748778440945 33.84663623332394 0 0 0
1705 143 1 0.13 4.291266268981481 8.147826472742892 37.235155307378925 0 0 0
168 14 12 -0.13 -0.6797984265738793 8.677534962762206 33.248751855570674 0 0 0
6137 512 5 0.13 -0.4272551259761097 1.4528698546599097 41.53464435232276 1 1 0
6135 512 3 0.13 -0.09973532317954803 0.26677617098779893 43.63451515091044 1 1 0
68 6 8 -0.13 -0.8097514370377228 3.9462996623427653 33.31154110673986 0 0 0
1706 143 2 0.13 4.536206104567591 9.366167763684278 36.57256065004143 0 0 0
939 79 3 0.13 -0.9256926160207541 7.672284874710344 38.32923111638037 0 0 0
202 17 10 -0.13 1.3126726605448757 16.24956786444933 1.065334325208918 0 0 0
290 25 2 0.13 3.430181924784711 19.056583456829767 2.4764487934304578 0 0 0
193 17 1 0.13 1.6263146673135114 13.129631811444902 3.747933922460585 0 0 0
310 26 10 -0.13 0.3826799390544824 18.12188251816164 6.433060004041623 0 0 0
304 26 4 0.13 1.168248401537733 17.407009845200985 7.263663661950686 0 0 0
212 18 8 -0.13 1.3314245964888314 13.051708217880499 8.329747132351061 0 0 0
306 26 6 0.13 1.4772469251069582 16.43860842854224 9.491550215534918 0 0 0
309 26 9 -0.13 2.661031394473117 16.702904996242395 5.500270532138462 0 0 0
405 34 9 -0.13 4.4627126668655075 20.521339443681416 7.3103982785017765 0 0 0
291 25 3 0.13 4.164664284482932 19.415632836105278 1.297659967911392 0 0 0
311 26 11 -0.13 -0.1313589279136198 18.119912298094405 9.152919923377194 0 0 0
203 17 11 -0.13 3.4170936406257955 14.277479017686517 0.7676249391537586 0 0 0
301 26 1 0.13 2.4911452130044744 15.62226665285262 9.000774394447095 0 0 0
198 17 6 0.13 2.5694156189743906 13.19561323966336 2.701853479399724 0 0 0
210 18 6 0.13 3.940925463440692 10.493099543776761 8.616513380622887 0 0 0
302 26 2 0.13 2.9347887209266714 15.82573934134508 7.660043764958093 0 0 0
199 17 7 -0.13 1.538583868330444 11.95280210927891 4.442368448395746 0 0 0
296 25 8 -0.13 3.5791925446618498 17.831895755717234 3.0336789750657847 0 0 0
205 18 1 0.13 3.2240322162542405 11.601193523042067 8.152327079952785 0 0 0
195 17 3 0.13 0.6367873589321509 15.205497061501578 3.02489661104051 0 0 0
284 24 8 -0.13 3.9042021442021957 16.54380144843622 -0.9360327898399017 0 0 1
307 26 7 -0.13 3.2921693214612153 14.907956358241528 9.843464568891946 0 0 0
196 17 4 0.13 1.4759146951914164 15.23623424723769 1.899456343187448 0 0 0
200 17 8 -0.13 -0.1401208459518951 14.049922488465509 5.015844005988706 0 0 0
211 18 7 -0.13 3.5408798526437035 12.233654087925618 6.974208145925749 0 0 0
201 17 9 -0.13 -0.4645400265570895 16.041091986825187 3.0507288376952535 0 0 0
294 25 6 0.13 2.0264966219769383 21.108592756049262 2.122430918958334 0 0 0
188 16 8 -0.13 1.1825896613415021 11.687125178288134 0.5294283177309836 0 0 1
181 16 1 0.13 -0.6165529152454324 11.302649718637749 -0.9678140587368069 0 0 1
197 17 5 0.13 2.5096816124788477 14.261092677427033 1.795315009268744 0 0 0
305 26 5 0.13 0.8129637928951601 17.297083263029155 8.596157741657429 0 0 0
5783 482 11 -0.13 -0.3819329614139836 20.853559246030606 5.487714451462017 1 0 0
308 26 8 -0.13 3.965636951648203 15.05176755230924 7.2161002440989925 0 0 0
194 17 2 0.13 0.7504203531585556 14.218678804459742 4.016766844279766 0 0 0
292 25 4 0.13 3.8890187253974764 20.60494261518748 0.607815166432613 0 0 0
295 25 7 -0.13 1.6189735245680916 19.53812679616584 3.9602864803681013 0 0 0
5676 473 12 -0.13 -0.5168841623039953 19.199891067122703 0.7848585666569504 1 0 0
289 25 1 0.13 2.345705683522426 19.890388453742958 2.8435024916211096 0 0 0
303 26 3 0.13 2.276099376419293 16.695798579306697 6.804251556609965 0 0 0
206 18 2 0.13 2.0245088931601116 11.930849715729941 8.754981107585897 0 0 0
398 34 2 0.13 2.4526459358093957 21.44698832514792 8.380109415179508 0 0 0
182 16 2 0.13 0.7511135311488744 11.564931478625507 -0.7367930150633847 0 0 1
204 17 12 -0.13 3.4645198971845197 12.217097290834584 2.5194624437419235 0 0 0
207 18 3 0.13 1.628451658523728 11.347194188070855 9.951904566440458 0 0 0
404 34 8 -0.13 2.6924884091935906 20.65776369732858 9.42183130758159 0 0 0
399 34 3 0.13 3.3927210227251976 21.438616737139114 7.357886007064016 0 0 0
293 25 5 0.13 2.914990316424157 21.494219129770034 1.0393700740452585 0 0 0
221 19 5 0.13 -0.5573795411628769 12.11948265147489 14.947233052964767 0 0 0
5806 484 10 -0.13 -0.5954254311935957 19.22221197175956 17.22546552181676 1 0 0
316 27 4 0.13 -0.5804968652953106 19.22844974008407 12.434478575830532 0 0 0
320 27 8 -0.13 2.8670852973757364 20.204667650901403 13.237959404475815 0 0 0
319 27 7 -0.13 2.5874760081887644 18.339136238493282 15.084446259309656 0 0 0
317 27 5 0.13 -0.7092728370116435 18.20683689608485 13.44120383220192 0 0 0
217 19 1 0.13 0.8834305927712922 13.760582846187422 16.00611513225988 0 0 0
328 28 4 0.13 2.8441403974192863 14.254789831904251 21.01145352282662 0 0 0
225 19 9 -0.13 1.2214626252228378 14.138103236042877 12.356912401808065 0 0 0
993 83 9 -0.13 3.654839932560944 12.074761422507805 13.633108331740623 0 0 0
431 36 11 -0.13 3.395714177715205 18.98583855268552 19.82836483287053 0 0 0
1090 91 10 -0.13 4.4430310157852615 18.646174836828006 10.830883717379246 0 0 0
425 36 5 0.13 3.2450211970850678 19.912660872200455 18.904863264422918 0 0 0
226 19 10 -0.13 -0.8413823637034898 12.30704792040493 12.645133168082596 0 0 0
228 19 12 -0.13 -0.607721322570064 12.308411973579243 17.27567464362685 0 0 0
326 28 2 0.13 1.1836790752982007 15.913900889190653 20.26122584696777 0 0 0
224 19 8 -0.13 2.412097237958364 15.078316973317747 14.643813450183066 0 0 0
330 28 6 0.13 3.268484343293826 15.564562061626884 18.96714048485526 0 0 0
1091 91 11 -0.13 4.528742017706792 16.877307193301053 12.633387855418997 0 0 0
327 28 3 0.13 1.5468809883300136 14.912857465632506 21.165614932531714 0 0 0
421 36 1 0.13 4.252522699802943 21.070782007105738 16.99842076525701 0 0 0
424 36 4 0.13 2.0985694494528944 20.72529015932346 18.77857827239479 0 0 0
223 19 7 -0.13 1.4459965100862497 14.30504364592122 17.070864969016668 0 0 0
218 19 2 0.13 1.4047474750183642 14.160511263807262 14.764415539340664 0 0 0
325 28 1 0.13 2.010542048400818 16.234782626195944 19.14875960989765 0 0 0
321 27 9 -0.13 0.8830159031229958 20.84987503800883 11.422634993343724 0 0 0
213 18 9 -0.13 0.5169454847731225 11.801489186162858 10.615098847984845 0 0 0
313 27 1 0.13 1.5954573979161948 18.528770102137575 14.177308922300444 0 0 0
240 20 12 -0.13 0.7989605706533898 11.209428480679595 19.86023819920658 0 0 0
312 26 12 -0.13 1.1565486289929643 16.41292784645836 10.814163838367396 0 0 0
318 27 6 0.13 0.36541965573903057 17.816682920869784 14.270821263150328 0 0 0
222 19 6 0.13 -0.09058259097378152 12.719025764338259 16.098775245889616 0 0 0
315 27 3 0.13 0.641997020481714 19.920685340850184 12.386956875611878 0 0 0
332 28 8 -0.13 0.0546765756927976 16.554637789532908 20.472492448952814 0 0 0
994 83 10 -0.13 4.397381693743953 11.898708518288647 16.323306396490146 0 0 0
314 27 2 0.13 1.697682548820262 19.544957427736684 13.23311268350902 0 0 0
329 28 5 0.13 3.643977965834079 14.539284370342404 19.875300269242473 0 0 0
331 28 7 -0.13 1.6574970682219967 17.226240912387105 18.22289288163516 0 0 0
219 19 3 0.13 0.814814231755832 13.68792915334878 13.552628267982296 0 0 0
220 19 4 0.13 -0.13556837445283587 12.681328129338443 13.7083227223844 0 0 0
426 36 6 0.13 4.300897624017602 20.165268358765417 18.024185997189765 0 0 0
336 28 12 -0.13 4.034820942354341 15.784513692500077 17.853703963458443 0 0 0
324 27 12 -0.13 0.2625879219006537 16.8472510983224 15.198952832172335 0 0 0
430 36 10 -0.13 1.0334253179276907 20.57386664598731 19.63747191680177 0 0 0
239 20 11 -0.13 2.2980171270072125 10.741053247632653 17.623929844593736 0 0 0
234 20 6 0.13 1.788423196340287 10.286856170294037 19.923663567333808 0 0 0
1106 93 2 0.13 4.0480686053713235 15.884957641354926 24.30272861683154 0 0 0
1111 93 7 -0.13 3.8528871200531327 17.0244858612126 22.218564847689805 0 0 0
1105 93 1 0.13 4.570842380783036 16.78902227392744 23.32587957227225 0 0 0
344 29 8 -0.13 1.571649177529277 16.66144000253061 26.436470784736404 0 0 0
259 22 7 -0.13 3.8605017572895237 12.199344348699238 28.704852364279375 0 0 0
359 30 11 -0.13 1.5103100253300883 17.810795556057656 31.92013934329955 0 0 0
343 29 7 -0.13 -0.7297302003980186 15.258939016491631 26.23365205441087 0 0 0
346 29 10 -0.13 0.42428843759491475 18.906418772190765 22.267044903663404 0 0 0
1112 93 8 -0.13 2.8881985270471104 15.288252830286169 24.091534169721413 0 0 0
338 29 2 0.13 0.8409406178277026 16.90437363752053 25.362360452053693 0 0 0
243 21 3 0.13 0.28888657729046296 11.424351272944552 24.66186052071778 0 0 0
249 21 9 -0.13 1.0953865911006657 12.02182770305259 23.72728174250175 0 0 0
251 21 11 -0.13 0.33096221612116117 11.17986911610306 28.331630565239358 0 0 0
333 28 9 -0.13 0.7105741239277421 14.525785015794021 22.182070022150178 0 0 0
339 29 3 0.13 1.1406626888314593 17.906041828145106 24.328814144129865 0 0 0
352 30 4 0.13 1.6103537712728366 18.722267147641038 29.705452806003155 0 0 0
354 30 6 0.13 3.262355454965002 17.08641210177969 30.504744660389708 0 0 0
250 21 10 -0.13 1.8358643541085846 12.22241437200184 26.33111973617361 0 0 0
443 37 11 -0.13 -0.7410022310848283 20.56846616006342 24.742300987714778 0 0 0
254 22 2 0.13 2.174805507368936 13.438366644004347 29.940013564235016 0 0 0
357 30 9 -0.13 1.7860173855679262 19.424331731128568 27.386687637943925 0 0 0
334 28 10 -0.13 3.1899483941552313 13.252893799703152 21.84725288853337 0 0 0
257 22 5 0.13 2.6243801838587446 11.708293699873739 32.10299210076823 0 0 0
345 29 9 -0.13 2.097041545468816 18.81906101143873 24.485314438282476 0 0 0
337 29 1 0.13 -0.37576691678852225 16.161579842334312 25.28205394177615 0 0 0
350 30 2 0.13 3.3813665607708296 17.897431902995024 28.26740296474839 0 0 0
258 22 6 0.13 3.3519941092892696 11.589810775208214 30.903255386584977 0 0 0
1140 95 12 -0.13 4.203452578389039 19.79328008099577 32.2796155633178 0 0 0
353 30 5 0.13 2.163086554681981 17.93848557258284 30.748113569722957 0 0 0
340 29 4 0.13 0.28572443199312403 17.951547590181434 23.203507303041533 0 0 0
260 22 8 -0.13 1.959615173380021 14.280938428604195 28.875252086875857 0 0 0
244 21 4 0.13 0.6403124960382705 11.638133358835187 26.02609638772031 0 0 0
1203 101 3 0.13 4.631055101592249 21.142575677777703 23.096138270556505 0 0 0
349 30 1 0.13 3.9045950610368116 17.096969653906484 29.266130015802 0 0 0
358 30 10 -0.13 0.4173809748303672 19.39647835101549 29.768930534864023 0 0 0
253 22 1 0.13 3.1198638341263436 12.404976595664625 29.818756448683175 0 0 0
351 30 3 0.13 2.2711611831043337 18.697493941822515 28.451739227909723 0 0 0
341 29 5 0.13 -0.8934487805718109 17.199086630926853 23.138362950105524 0 0 0
245 21 5 0.13 -0.1193025872789345 11.127260135977757 27.087695859941835 0 0 0
242 21 2 0.13 -0.9327281588157754 10.83605449878172 24.28694484702237 0 0 0
255 22 3 0.13 1.4164862032560928 13.537684132299244 31.138191462499783 0 0 0
256 22 4 0.13 1.640392815644463 12.697451802669978 32.25851737010572 0 0 0
261 22 9 -0.13 0.5182382063882098 14.600180366489912 31.31410422945738 0 0 0
360 30 12 -0.13 3.683327371836647 16.337366591716787 31.53188007628543 0 0 0
1209 101 9 -0.13 3.5841058614865933 20.281859023143483 22.901364251535774 0 0 0
5735 478 11 -0.13 -0.6764608967420194 16.2748193703371 29.382109090897007 1 0 0
264 22 12 -0.13 4.331030233391649 10.630737030750186 30.83165747862727 0 0 0
356 30 8 -0.13 3.935757398132134 17.838772502338074 27.07191982809598 0 0 0
1113 93 9 -0.13 4.2222219387686 14.758443501279068 26.28452990485543 0 0 0
437 37 5 0.13 -0.14476062565951253 21.478898939716963 23.96294999855445 0 0 0
189 16 9 -0.13 2.9200598370246302 12.003188728573114 43.33682403757442 0 0 0
268 23 4 0.13 0.8140697896488807 15.5148476984474 35.93637087087702 0 0 0
266 23 2 0.13 -0.6707352444670378 13.834510385956069 36.92761412674079 0 0 0
287 24 11 -0.13 3.3358580341733246 16.837008104478166 38.50204985565892 0 0 0
1043 87 11 -0.13 3.4113284271714823 14.262258204361771 33.44719562839561 0 0 0
1129 95 1 0.13 3.7636984650152066 19.353710529457764 34.669666216527744 0 0 0
277 24 1 0.13 3.313417219482928 17.79597828584244 42.12945111998007 0 0 0
1038 87 6 0.13 4.0042891062130765 13.488304748571366 35.570250381128496 0 0 0
273 23 9 -0.13 1.0356844747583782 14.844626972223612 38.22246916077747 0 0 0
190 16 10 -0.13 1.890470088555118 12.18672749171142 40.74203966551948 0 0 0
282 24 6 0.13 3.1517311329517055 17.946366195352464 40.74819920655938 0 0 0
1037 87 5 0.13 4.1410506511837895 14.433375913484245 34.58424907581259 0 0 0
185 16 5 0.13 -0.3128126610825114 11.76501854341134 41.674007750389094 0 0 0
267 23 3 0.13 0.40805455469743745 14.7516718902774 37.026273023357504 0 0 0
363 31 3 0.13 -0.6504719770340281 20.357953387229124 36.05838433844279 0 0 0
274 23 10 -0.13 1.91383106080408 16.254628302084377 35.951153054039054 0 0 0
278 24 2 0.13 3.433309122635901 16.560025896593473 42.72688564117714 0 0 0
281 24 5 0.13 3.2668540345495476 16.822334640897363 39.91130331731471 0 0 0
262 22 10 -0.13 0.850262460521632 12.704963035596741 33.36376890648055 0 0 0
286 24 10 -0.13 3.34094345075538 14.395690649883111 39.78728312340752 0 0 0
1136 95 8 -0.13 3.6434695992749964 18.799467524551474 37.01950037761585 0 0 0
184 16 4 0.13 1.1254683299945305 11.979907384590845 41.810335186839566 0 0 0
948 79 12 -0.13 -0.07158224960350179 10.789619520789174 35.719031620377436 0 0 0
288 24 12 -0.13 2.946013935925582 19.13050071032905 40.10713020965161 0 0 0
361 31 1 0.13 -0.5592935631798237 20.300415620250913 33.62598359251933 0 0 0
280 24 4 0.13 3.357840651145348 15.53448602808447 40.54616077401992 0 0 0
379 32 7 -0.13 0.74571370048849 20.388998609977897 42.29046112886486 0 0 0
279 24 3 0.13 3.514073355096615 15.420528653619591 41.93229569114486 0 0 0
1135 95 7 -0.13 2.611525117055715 18.744929243551994 34.403206982939345 0 0 0
283 24 7 -0.13 3.342117145571179 18.86958462642702 42.96413851449687 0 0 0
364 31 4 0.13 0.48243854480244 21.200152388718614 36.082794878221854 0 0 0
1134 95 6 0.13 4.540429109336401 19.911406909614595 33.60064981843007 0 0 0
183 16 3 0.13 1.5915227993636107 11.877205839341272 43.13318235479617 0 0 0
285 24 9 -0.13 3.437825911071916 14.220429576285063 42.57668560937796 0 0 0
1044 87 12 -0.13 3.096729428705757 12.452064912768744 35.375340406348556 0 0 0
269 23 5 0.13 -0.005681829064670962 15.387376716958329 34.74658390692761 0 0 0
366 31 6 0.13 0.5027060710753943 21.202069846257185 33.60555639793432 0 0 0
191 16 11 -0.13 -0.9328424013310881 11.720846377210833 40.45396721817344 0 0 0
373 32 1 0.13 0.3277871373064771 21.400633330916484 41.45958733503009 0 0 0
1039 87 7 -0.13 4.260764124165892 12.874202220273588 37.92381185123931 0 0 0
1130 95 2 0.13 4.273867521602721 19.449977738077642 36.011468373189174 0 0 0
275 23 11 -0.13 0.41816872359835444 16.006352039350965 33.64017207414234 0 0 0
5661 472 9 -0.13 0.12397022344028596 16.07784942011992 41.53015404411023 1 0 0