LAMMPS data file via write_data, version 29 Aug 2024, timestep = 1000000, units = real

6174 atoms
18 atom types
6174 bonds
18 bond types
10290 angles
30 angle types
12348 dihedrals
36 dihedral types
3430 impropers
10 improper types

1.9449161077839427 43.05508389221143 xlo xhi
1.9449161077839427 43.05508389221143 ylo yhi
1.9449161077839427 43.05508389221143 zlo zhi

Masses

1 12.011
2 12.011
3 12.011
4 12.011
5 12.011
6 12.011
7 12.011
8 12.011
9 1.008
10 1.008
11 1.008
12 1.008
13 1.008
14 1.008
15 1.008
16 1.008
17 1.008
18 1.008

Pair Coeffs # lj/cut/coul/long

1 0.066 3.5
2 0.07 3.55
3 0.07 3.55
4 0.07 3.55
5 0.07 3.55
6 0.07 3.55
7 0.07 3.55
8 0.066 3.5
9 0.03 2.5
10 0.03 2.5
11 0.03 2.5
12 0.03 2.42
13 0.03 2.42
14 0.03 2.42
15 0.03 2.42
16 0.03 2.5
17 0.03 2.5
18 0.03 2.5

Bond Coeffs # harmonic

1 317 1.51
2 469 1.4
3 469 1.4
4 469 1.4
5 469 1.4
6 469 1.4
7 317 1.51
8 340 1.09
9 340 1.09
10 340 1.09
11 367 1.08
12 367 1.08
13 367 1.08
14 367 1.08
15 340 1.09
16 340 1.09
17 340 1.09
18 469 1.4

Angle Coeffs # harmonic

1 70 120
2 63 120
3 63 120
4 63 120
5 70 120
6 70 120
7 35 109.5
8 35 109.5
9 35 109.5
10 35 120
11 35 120
12 35 120
13 35 120
14 35 109.5
15 35 109.5
16 35 109.5
17 33 107.8
18 35 120
19 63 120
20 63 120
21 33 107.8
22 35 120
23 70 120
24 33 107.8
25 33 107.8
26 35 120
27 33 107.8
28 33 107.8
29 35 120
30 63 120

Dihedral Coeffs # opls

1 0 7.25 0 0
2 0 7.25 0 0
3 0 7.25 0 0
4 0 0 0 0
5 0 0 0 0
6 0 7.25 0 0
7 0 7.25 0 0
8 0 7.25 0 0
9 0 0 0 0
10 0 7.25 0 0
11 0 0 0 0
12 0 7.25 0 0
13 0 0 0 0
14 0 0 0 0
15 0 7.25 0 0
16 0 0 0 0
17 0 7.25 0 0
18 0 7.25 0 0
19 0 0 0 0
20 0 7.25 0 0
21 0 7.25 0 0
22 0 7.25 0 0
23 0 7.25 0 0
24 0 7.25 0 0
25 0 7.25 0 0
26 0 7.25 0 0
27 0 0 0 0
28 0 0 0 0
29 0 7.25 0 0
30 0 7.25 0 0
31 0 0 0 0
32 0 0 0 0
33 0 7.25 0 0
34 0 7.25 0 0
35 0 7.25 0 0
36 0 7.25 0 0

Improper Coeffs # cvff

1 1.1 -1 2
2 1.1 -1 2
3 0 -1 2
4 0 -1 2
5 1.1 -1 2
6 1.1 -1 2
7 1.1 -1 2
8 1.1 -1 2
9 0 -1 2
10 0 -1 2

Atoms # full

5478 305 6 -0.115 6.097530228090834 3.9738183614855367 6.453834984440529 1 -1 0
27 2 9 0.06 3.0518759891649774 11.443891490248326 10.806172619790289 0 -1 1
1461 82 3 -0.115 10.738291376860541 11.92981312337113 12.15427467992866 -1 1 2
5479 305 7 -0.115 7.212126279335052 4.564128108593121 6.978194775875418 1 -1 0
5483 305 11 0.06 8.838893082757245 5.62998923993935 9.25407459745387 1 -1 0
5489 305 17 0.06 7.110379435280875 6.2238060802365744 5.578544565971837 1 -1 0
5666 315 14 0.115 11.624656903264878 6.6732580560697015 2.6850548086369335 1 1 2
5474 305 2 -0.115 7.876565021983547 4.049589483902922 8.071793337675956 1 -1 0
5480 305 8 -0.065 7.481667101478061 6.006677760997152 6.615589362555108 1 -1 0
83 5 11 0.06 9.967237773729918 13.48504976239283 3.650152390068598 -1 -1 0
5475 305 3 -0.115 7.497272352929177 2.764104419892814 8.497753016246257 1 -1 0
3112 173 16 0.06 8.422119778138722 3.7886144787416223 11.93530388726377 0 -1 0
5473 305 1 -0.065 9.073601358575447 4.662914078048739 8.878938733654621 1 -1 0
5484 305 12 0.115 7.94148979206779 2.344114821616039 9.368864584487646 1 -1 0
3148 175 16 0.06 7.745330781149642 9.988899996096007 9.848118746862959 1 0 0
5477 305 5 -0.115 5.756009506402499 2.6078536174684652 6.799733497873401 1 -1 0
5481 305 9 0.06 9.937284458596412 4.73997699340711 8.196334560160413 1 -1 0
5482 305 10 0.06 9.293351974258556 4.022608319971678 9.716087545131128 1 -1 0
5376 299 12 0.115 4.329440665823274 7.40007289374062 5.548727767173087 1 0 -1
5490 305 18 0.06 8.576665057375882 6.215965152485562 6.505226959681776 1 -1 0
5488 305 16 0.06 7.134601652084119 6.719328677280277 7.363504577277722 1 -1 0
4976 277 8 -0.065 11.135345027666846 7.765942285968265 7.835522818328488 1 0 -2
4984 277 16 0.06 10.654813749575796 7.30767531194431 8.669341233021196 1 0 -2
4047 225 15 0.115 4.037915669745578 4.010466039855073 8.858095037147665 1 1 0
5367 299 3 -0.115 3.2770403930537206 7.241666898937252 5.167337340830635 1 0 -1
75 5 3 -0.115 11.989186721016459 11.931522257297111 3.1881749574770435 -1 -1 0
5655 315 3 -0.115 10.026267791162113 3.964558087881138 3.6295803547841716 1 1 2
281 16 11 0.06 3.8783520703070256 14.856209992179991 4.487618570403477 -2 -1 0
5657 315 5 -0.115 11.385444773693715 5.854486908250923 3.2442930927693645 1 1 2
5659 315 7 -0.115 11.667403665269601 4.47886975301456 5.269677435212502 1 1 2
3103 173 7 -0.115 7.390867889821201 5.714300372228539 11.722483688639322 0 -1 0
4985 277 17 0.06 11.404973797283157 6.970363744525071 7.09705845688578 1 0 -2
5658 315 6 -0.115 12.068440577091168 5.527092577124162 4.4752463496146975 1 1 2
5368 299 4 -0.115 3.13716484988114 7.1177601452524755 3.7472421757985583 1 0 -1
3111 173 15 0.115 6.5208362962444 4.286993638276522 10.518152521247817 0 -1 0
3102 173 6 -0.115 6.539274241490069 5.305012644010908 10.759545866262105 0 -1 0
3099 173 3 -0.115 6.576486966984095 8.002744668656772 11.44972759296553 0 -1 0
3110 173 14 0.115 4.958215781217547 5.911366745357043 9.360290492217526 0 -1 0
3101 173 5 -0.115 5.688231577073294 6.207132980659641 10.105698798909927 0 -1 0
5904 328 18 0.06 7.894491764234861 5.223030538329381 3.0992923484592216 -1 2 1
5487 305 15 0.115 5.607419821310569 4.4510811746428045 5.578348196751 1 -1 0
4038 225 6 -0.115 3.2897405237947233 3.2801109495198553 9.220167385982222 1 1 0
31 2 13 0.115 7.391774924924245 14.207739184862742 12.155777918496208 0 -1 1
5656 315 4 -0.115 10.42627447965952 5.020564531089783 2.788240488035741 1 1 2
3146 175 14 0.115 4.504621040223142 10.124882751772816 5.687903073010498 1 0 0
79 5 7 -0.115 10.559503508277855 10.155752305067303 4.218480031070384 -1 -1 0
5653 315 1 -0.065 10.05978021109625 2.496301143457178 5.620608639599197 1 1 2
4303 240 1 -0.065 9.533599156945488 15.56632546298632 5.888307561011 -1 1 0
5654 315 2 -0.115 10.600455576075793 3.672888892777623 4.837228179863021 1 1 2
3147 175 15 0.115 5.710828919504358 8.841759351292998 7.271041586650735 1 0 0
5663 315 11 0.06 9.311502947001891 2.6015374834493765 6.3145491545905825 1 1 2
3150 175 18 0.06 7.791477109013288 8.604368074574928 8.75350766740161 1 0 0
3138 175 6 -0.115 6.061926571796981 9.864541412550954 7.108562993177383 1 0 0
34 2 16 0.06 2.5931255910278623 12.824294960549604 9.151479222270215 0 -1 1
87 5 15 0.115 11.518677120804625 8.211044724118242 4.483199647230751 -1 -1 0
412 23 16 0.06 11.556263522546606 2.7215897277582846 11.012031138219097 -1 1 0
3100 173 4 -0.115 5.7202339545209275 7.6063697843276765 10.455684847449906 0 -1 0
5664 315 12 0.115 9.256747196143163 3.21951274287348 3.331120247238905 1 1 2
36 2 18 0.06 3.3786718366541124 13.813353388684472 7.824471976919959 0 -1 1
5669 315 17 0.06 11.77864822899488 4.06958468678769 7.51145281250185 1 1 2
284 16 14 0.115 2.288152846725016 9.463469374261052 2.425170522472966 -2 -1 0
288 16 18 0.06 2.246185435743171 11.99771804123028 6.604019214448983 -2 -1 0
4046 225 14 0.115 4.286202798924242 3.4664967402528513 11.05687448585635 1 1 0
5366 299 2 -0.115 2.124427610148615 7.3420533193088575 5.915888224792791 1 0 -1
5377 299 13 0.115 4.1014121287745 7.132394571366725 3.215091306596476 1 0 -1
29 2 11 0.06 4.3919906306475065 10.656315416533415 9.857433090700484 0 -1 1
5375 299 11 0.06 3.2683508166184 7.441549785902278 7.701114199480063 1 0 -1
5365 299 1 -0.065 2.277969105919791 7.651191437083053 7.379966603574854 1 0 -1
23 2 5 -0.115 6.492583027568324 14.88986545079886 10.26940765144749 0 -1 1
28 2 10 0.06 4.391411107684258 10.743994569454703 11.598031512389952 0 -1 1
1470 82 12 0.115 9.704531544068647 11.9269942326941 11.803084832759506 -1 1 2
78 5 6 -0.115 11.605659057123725 9.253762651943312 4.1387810715135185 -1 -1 0
4977 277 9 0.06 11.873976079722986 9.494368100758251 11.460152763583531 1 0 -2
5894 328 8 -0.065 7.153102019115081 6.005126268365064 2.666494922591059 -1 2 1
1460 82 2 -0.115 11.880905710248186 12.466073569540075 11.461122309801679 -1 1 2
35 2 17 0.06 3.7535585572484926 12.128591031046252 8.109258216219144 0 -1 1
5476 305 4 -0.115 6.460470993409177 2.004766691076949 7.835043954955718 1 -1 0
33 2 15 0.115 5.130767974276514 15.292257980175032 8.61434439432429 0 -1 1
271 16 1 -0.065 2.9322797435456254 14.663185967204456 3.9817187861485235 -2 -1 0
24 2 6 -0.115 5.415801766162955 14.571986824486302 9.384426701540804 0 -1 1
4050 225 18 0.06 2.5390217637771677 3.566972828293755 6.521423161399839 1 1 0
1469 82 11 0.06 10.60473125976763 13.43986749456004 10.020602532107295 -1 1 2
3136 175 4 -0.115 5.722278273462898 11.905374522027337 5.830615251279559 1 0 0
82 5 10 0.06 8.774263093315824 12.158603851030655 3.4528639405289923 -1 -1 0
3108 173 12 0.115 6.629064470943142 9.061774836900106 11.721139968185636 0 -1 0
20 2 2 -0.115 4.85695738631518 12.559127712420525 10.661286179430792 0 -1 1
4986 277 18 0.06 10.479696452002003 8.457200286933872 7.309404723494759 1 0 -2
273 16 3 -0.115 3.2983690861447212 12.682647971903481 2.4228102382289 -2 -1 0
3145 175 13 0.115 5.149629120141734 12.415616001305388 5.165980639119585 1 0 0
1468 82 10 0.06 12.205013050376785 14.098905020765002 10.086744524158139 -1 1 2
88 5 16 0.06 9.018744238392404 10.292217741790498 5.757896778662314 -1 -1 0
19 2 1 -0.065 4.112702255295568 11.241974818977953 10.73099400996001 0 -1 1
5903 328 17 0.06 7.1652526435617085 6.9305363990012046 3.2861802471803325 -1 2 1
21 2 3 -0.115 5.835851006721054 12.920208771494588 11.559861784948403 0 -1 1
272 16 2 -0.115 2.830196268046428 13.167800222924988 3.643063028919215 -2 -1 0
1467 82 9 0.06 11.867710574397805 12.744596944599111 9.180493108093629 -1 1 2
81 5 9 0.06 9.344207470616645 12.528296888571402 5.0874225015958014 -1 -1 0
3149 175 17 0.06 9.019829594048295 9.720372585089846 8.562196057873555 1 0 0
3140 175 8 -0.065 7.965747845967089 9.691684092380763 8.835075478581423 1 0 0
25 2 7 -0.115 4.5691189684819005 13.472592487404002 9.600551994468415 0 -1 1
5902 328 16 0.06 6.1403908045101385 5.552933672249123 2.8055858996320318 -1 2 1
26 2 8 -0.065 3.505476199955508 13.064612726135108 8.578950296487953 0 -1 1
5661 315 9 0.06 10.847981294556002 2.144427125953223 6.3191833550417185 1 1 2
4313 240 11 0.06 9.021796321902999 14.663835972994777 5.529201611768201 -1 1 0
3109 173 13 0.115 5.090788368915416 8.278486258596892 9.907164341253585 0 -1 0
275 16 5 -0.115 2.5655404225744816 10.407827864892042 2.827544030890919 -2 -1 0
4037 225 5 -0.115 3.4585053242373944 2.935774457732124 10.562648688865083 1 1 0
105 6 15 0.115 2.323313128217252 6.146846424821556 11.108869213527937 1 0 3
89 5 17 0.06 8.868502471843478 8.737095545702626 4.8231906105265185 -1 -1 0
80 5 8 -0.065 9.242162052803133 9.753729093739812 4.800650068665635 -1 -1 0
90 5 18 0.06 8.474968403453776 10.170663650649882 4.1395873004094375 -1 -1 0
3133 175 1 -0.065 8.494020032599284 12.514592470863963 8.322204764773305 1 0 0
3139 175 7 -0.115 7.126335450987144 10.484171775309818 7.786980558111981 1 0 0
84 5 12 0.115 12.022336448834116 12.783974087784793 2.599023514606299 -1 -1 0
4978 277 10 0.06 11.489023920114604 7.905675327614427 10.776077929514258 1 0 -2
4969 277 1 -0.065 11.613567655302951 8.946629713059771 10.542104136468916 1 0 -2
3143 175 11 0.06 8.493492375417615 12.137897420632296 9.350743920499404 1 0 0
4979 277 11 0.06 10.624630981810059 9.279810930609868 10.270274810131605 1 0 -2
3135 175 3 -0.115 6.825514637408347 12.573189875158771 6.5424612937302395 1 0 0
73 5 1 -0.065 9.629020645832615 12.535981788244356 4.010315521109842 -1 -1 0
3137 175 5 -0.115 5.342537999225096 10.616126105358443 6.125321676889457 1 0 0
3142 175 10 0.06 9.427058621755402 12.438379757513678 7.864673965595616 1 0 0
3134 175 2 -0.115 7.5226375453470045 11.848639297609628 7.502495630054148 1 0 0
1459 82 1 -0.065 11.634505435424265 13.207058818403883 10.115190989615051 -1 1 2
277 16 7 -0.115 2.2464907738410194 12.18449907641059 4.4516501273111775 -2 -1 0
3141 175 9 0.06 8.213069220577697 13.561786196249894 8.42814523160046 1 0 0
280 16 10 0.06 3.1363944030368422 15.195865385346421 3.002175114579275 -2 -1 0
3144 175 12 0.115 6.963030439679939 13.637411427330758 6.499235085372777 1 0 0
74 5 2 -0.115 10.726901507206575 11.489440441582165 3.7392050327143704 -1 -1 0
276 16 6 -0.115 2.0678423590345147 10.857576247618088 4.036451487148332 -2 -1 0
4039 225 7 -0.115 2.0957907332978962 2.821294157152247 8.528725239032896 1 1 0
22 2 4 -0.115 6.66543117361943 14.030236406230857 11.37749589438291 0 -1 1
4311 240 9 0.06 10.456663605992869 15.220544533807573 6.441661450684668 -1 1 0
3098 173 2 -0.115 7.398725516371554 7.083532897393383 12.108824123232578 0 -1 0
5486 305 14 0.115 4.941245066923477 2.090107146410254 6.367840135613877 1 -1 0
5039 280 17 0.06 2.164007821165592 15.407795197531978 11.391217687954832 0 2 1
5896 328 10 0.06 8.839897431722484 8.290053757734531 2.161633895055083 -1 2 1
406 23 10 0.06 12.19292588573865 5.041622439189975 10.743600756079106 -1 1 0
4320 240 18 0.06 10.659237336640723 15.40218716007801 8.46800217138098 -1 1 0
274 16 4 -0.115 3.19218298792663 11.367419008847545 1.9914309270349941 -2 -1 0
279 16 9 0.06 2.0107941949890225 15.109208776827288 4.361611872303683 -2 -1 0
287 16 17 0.06 2.0333585889892145 13.60444858006643 6.127089052821405 -2 -1 0
5374 299 10 0.06 1.9705584668223821 8.702346361474145 7.680406810141072 1 0 -1
4371 243 15 0.115 8.841044924234517 3.1731883485622348 16.042419978028928 0 0 -1
4591 256 1 -0.065 8.071691669383371 4.4163213248528495 20.497585928834464 0 1 -1
4362 243 6 -0.115 7.959248006724372 2.662749352877878 16.495944808914103 0 0 -1
4363 243 7 -0.115 6.821434734641633 3.4637372868490575 16.854401170253773 0 0 -1
4601 256 11 0.06 8.631107080831708 4.528888568897875 19.560504214421254 0 1 -1
3097 173 1 -0.065 8.153331848000755 7.508899261910968 13.285509582272915 0 -1 0
5616 312 18 0.06 2.8955404796059017 2.5534478274329495 15.719375775583961 1 0 -1
4358 243 2 -0.115 5.720366769431593 2.8566647778029215 17.541663879413633 0 0 -1
4357 243 1 -0.065 4.597813244242348 3.729120251287196 18.029373290111373 0 0 -1
5607 312 9 0.06 3.269994258754581 5.264295879686859 14.736503187953653 1 0 -1
4364 243 8 -0.065 6.87855575637496 4.942181791465565 16.555043757201116 0 0 -1
4373 243 17 0.06 7.451798624455716 5.430101777103039 17.46681982473318 0 0 -1
4372 243 16 0.06 7.400942547460788 5.046494848990483 15.580092619862958 0 0 -1
4374 243 18 0.06 5.882201178698908 5.425689901968101 16.415012853961997 0 0 -1
4600 256 10 0.06 7.006055267905954 4.525342626812603 20.198771862963607 0 1 -1
4599 256 9 0.06 8.25912493797168 5.200507570013621 21.16909293669744 0 1 -1
4832 269 8 -0.065 11.151711318396819 8.092103283943423 19.275568209818065 1 -1 -1
4840 269 16 0.06 11.304143358213983 7.419357808540976 20.034038640244376 1 -1 -1
4842 269 18 0.06 10.265155384326357 7.755808955314765 18.63091885817556 1 -1 -1
2869 160 7 -0.115 5.922209641083682 9.772770497577106 15.621583652973142 1 1 0
2494 139 10 0.06 2.355985206775981 9.303556126314163 19.545328794279357 0 -2 0
4366 243 10 0.06 4.895134891997232 4.140661641193427 18.944853053174143 0 0 -1
106 6 16 0.06 2.745367754054881 8.002011725429373 12.351033698192797 1 0 3
5506 306 16 0.06 2.5561559935869855 13.519956504314486 13.799417328482315 0 0 -1
4367 243 11 0.06 3.653957021303608 3.1534362204694215 18.324659232619815 0 0 -1
755 42 17 0.06 3.5674867538653574 5.247697790523771 21.978009361491573 1 2 -2
4365 243 9 0.06 4.326333029319669 4.414206597527761 17.250235754575606 0 0 -1
754 42 16 0.06 3.5786058100757816 3.4056119874053072 21.90857366570549 1 2 -2
4593 256 3 -0.115 8.883363971896944 2.0229679306741173 20.384326608561267 0 1 -1
4592 256 2 -0.115 8.439761267526833 3.0447333979572444 21.228643968015596 0 1 -1
1166 65 14 0.115 2.4064642350229786 10.3995240665617 22.37166078495052 -1 1 -2
2403 134 9 0.06 9.469319146052948 14.649074053690148 20.245832450449985 2 1 0
5599 312 1 -0.065 2.2535915629864602 5.043226848076573 14.570223496660397 1 0 -1
5579 310 17 0.06 10.602312682359845 5.019223744967267 18.00365758063869 0 0 -1
2487 139 3 -0.115 4.760427849941477 7.517767852272333 20.581339242836318 0 -2 0
2485 139 1 -0.065 3.043222676556356 8.58642006705461 19.086120467405856 0 -2 0
2493 139 9 0.06 3.20028494150775 8.955519277001695 18.09229783712695 0 -2 0
2486 139 2 -0.115 4.333043273520614 8.69430474527072 19.913409039953724 0 -2 0
2499 139 15 0.115 6.936282135506425 10.810783726643594 20.9278797222351 0 -2 0
746 42 8 -0.065 3.1015368790167868 4.295269495098106 21.43816362032586 1 2 -2
2496 139 12 0.115 4.075260048158423 6.679036809717743 20.518131967847562 0 -2 0
3113 173 17 0.06 7.681256695102271 4.332898560918462 13.341436934637226 0 -1 0
5570 310 8 -0.065 11.364989162396961 4.186585541342961 18.130450076193615 0 0 -1
2401 134 7 -0.115 7.213531234687478 15.27247056073898 18.95382647575364 2 1 0
2490 139 6 -0.115 6.283666058910011 9.92614451753089 20.874289682206324 0 -2 0
2492 139 8 -0.065 4.712132079403671 11.160308249377719 19.245542529717504 0 -2 0
3107 173 11 0.06 7.92081131202755 6.8491880971906225 14.107226990428462 0 -1 0
2872 160 10 0.06 8.512896015189746 9.982137159399368 17.976572794090078 1 1 0
2498 139 14 0.115 7.627886480640836 8.702288929207327 22.069393280239108 0 -2 0
4292 239 8 -0.065 3.9890493671739167 14.837574810952535 21.997157787404554 0 1 -1
2488 139 4 -0.115 5.931982351114751 7.5692802524655995 21.370664696410373 0 -2 0
4602 256 12 0.115 9.129742857102293 2.3209625626946124 19.40547401497089 0 1 -1
2876 160 14 0.115 4.646190763002843 12.64637589657144 14.320512403314401 1 1 0
4302 239 18 0.06 4.854498910290893 15.479157297995254 22.023308172723343 0 1 -1
4839 269 15 0.115 9.969991229785588 8.513101735464325 21.773118860651046 1 -1 -1
2879 160 17 0.06 4.961142815586705 8.04874283803009 16.518596910060502 1 1 0
4833 269 9 0.06 11.505853434082868 9.78101917635241 17.42667578358158 1 -1 -1
3105 173 9 0.06 7.983456955706295 8.536785568159221 13.569437200208865 0 -1 0
2875 160 13 0.115 6.665942405160715 13.565642333267578 15.249021896549303 1 1 0
2880 160 18 0.06 6.484199297910673 7.66192240946641 15.85792637628214 1 1 0
4831 269 7 -0.115 10.830091745729229 9.399077349505205 19.870931690108506 1 -1 -1
2502 139 18 0.06 4.860441353182459 12.08969434129492 19.830973893747966 0 -2 0
2871 160 9 0.06 7.359161677066166 8.798892379265862 17.91541150469876 1 1 0
2873 160 11 0.06 8.654544080180134 8.808870364206518 16.70213903068336 1 1 0
2863 160 1 -0.065 7.925108335001973 9.453084989588074 17.248744237988653 1 1 0
5501 306 11 0.06 2.366506857166816 13.267933423786701 18.319607273151014 0 0 -1
2412 134 18 0.06 7.471677996257527 13.402647345066162 20.141268261698052 2 1 0
1495 84 1 -0.065 11.521248527049359 15.270071488690238 14.03987003790289 1 3 0
2874 160 12 0.115 8.120763792966962 12.089917752082291 16.60889833972724 1 1 0
2864 160 2 -0.115 6.995982710439465 10.312086834784111 16.35916678257091 1 1 0
3104 173 8 -0.065 8.205768243089391 4.675880496833434 12.484146705780072 0 -1 0
5609 312 11 0.06 2.159399116044884 4.058137874612589 14.20129833225663 1 0 -1
2495 139 11 0.06 2.645104904415269 7.564080167319768 19.103168575121344 0 -2 0
2410 134 16 0.06 8.301513913976287 13.49666361690039 18.59693992977246 2 1 0
2411 134 17 0.06 6.55297465981059 13.251781980166067 18.696375937794173 2 1 0
5615 312 17 0.06 2.0603550947039335 1.987510400941171 17.2483578641218 1 0 -1
5491 306 1 -0.065 1.9559258351977775 13.583885225432605 17.331297465046937 0 0 -1
3114 173 18 0.06 9.121008860846942 5.208327431912487 12.83720468902205 0 -1 0
2497 139 13 0.115 6.390617940406941 6.639372520197503 21.805331495116228 0 -2 0
4291 239 7 -0.115 2.779951078332222 15.444192866592841 21.319026019147103 0 1 -1
4829 269 5 -0.115 9.826542639262456 10.644259379963497 21.804925182195923 1 -1 -1
2867 160 5 -0.115 5.3104563893049415 12.000159894612773 14.831959721339436 1 1 0
1504 84 10 0.06 11.423967662784609 14.366808932231597 13.476657674547807 1 3 0
3106 173 10 0.06 9.264266784310188 7.479506144472031 12.921378358768212 0 -1 0
4828 269 4 -0.115 10.214891734559531 11.845377127865586 21.170651722622857 1 -1 -1
4825 269 1 -0.065 11.790048795623674 10.642830771308526 17.956692495519647 1 -1 -1
5500 306 10 0.06 2.7630359760672345 14.04416130250283 16.70113128113426 0 0 -1
1505 84 11 0.06 11.605146907829178 14.858504584038572 15.02723718193247 1 3 0
4837 269 13 0.115 10.144294114642598 12.754659896874145 21.70956849913848 1 -1 -1
4827 269 3 -0.115 10.797225275518805 11.877917729983318 19.881214168136506 1 -1 -1
2878 160 16 0.06 5.066697418968428 7.989114783780773 14.77328869436093 1 1 0
2500 139 16 0.06 3.6195372497588187 11.147311703615019 19.056831064761816 0 -2 0
2870 160 8 -0.065 5.5682421765201395 8.312300999328116 15.671607154690953 1 1 0
4836 269 12 0.115 10.955921550537523 12.877327278836063 19.439411148284446 1 -1 -1
756 42 18 0.06 3.320846698745001 4.207927047738559 20.381888549349142 1 2 -2
2489 139 5 -0.115 6.681581881567449 8.742572691313724 21.529792770634092 0 -2 0
4830 269 6 -0.115 10.159632063570294 9.422279746896411 21.172516285871975 1 -1 -1
5580 310 18 0.06 10.802092512767818 3.3464003118446173 18.51739594833725 0 0 -1
1462 82 4 -0.115 10.941351702353934 11.250578168133567 13.373234468165608 -1 1 2
1463 82 5 -0.115 12.194542876261638 11.030101178666994 13.864654974961507 -1 1 2
4826 269 2 -0.115 11.18821075382736 10.640915354575856 19.27597009132642 1 -1 -1
2491 139 7 -0.115 5.066588426026448 9.895033833669164 20.07013850723995 0 -2 0
2409 134 15 0.115 5.234705357984401 15.091571990825896 18.217698088437402 2 1 0
2868 160 6 -0.115 5.111224219496263 10.636438096950158 14.861676538085321 1 1 0
1471 82 13 0.115 10.103972505290882 10.95502771948807 13.930130799662837 -1 1 2
2501 139 17 0.06 5.0486612474176304 11.233106545751237 18.231398507307674 0 -2 0
2866 160 4 -0.115 6.416043373875432 12.528658384484022 15.381139139354977 1 1 0
2402 134 8 -0.065 7.384017002634235 13.797098858469266 19.12274119800397 2 1 0
2877 160 15 0.115 4.268524227351044 10.183817997901041 14.428531492909698 1 1 0
2865 160 3 -0.115 7.33275719580963 11.658261402559619 16.074049863757377 1 1 0
5577 310 15 0.115 11.447453522605615 3.9523251841580658 20.834490699017906 0 0 -1
1202 67 14 0.115 8.446805044076683 14.924470467984957 22.010855032430598 -2 -1 0
2405 134 11 0.06 10.316886454955798 15.621269551381204 18.999390667803393 2 1 0
5033 280 11 0.06 4.137015795556774 14.859887377099936 12.584264465452765 0 2 1
4300 239 16 0.06 4.351647637292272 13.939373395017464 21.43771577664442 0 1 -1
4835 269 11 0.06 11.537057799538005 11.554623168817056 17.392004305078615 1 -1 -1
30 2 12 0.115 6.025147422336476 12.345745262898578 12.395509660486438 0 -1 1
5578 310 16 0.06 11.69526406745373 3.854027158826704 17.177166283470907 0 0 -1
4841 269 17 0.06 12.020699078875971 7.982600148416526 18.6480119269604 1 -1 -1
2395 134 1 -0.065 9.653534855736403 15.585253651539063 19.831483911422076 2 1 0
405 23 9 0.06 12.048963498852993 5.1532620206064355 12.564186706664334 -1 1 0
5606 312 8 -0.065 1.9623586936632316 2.5843797968181024 16.318955781020478 1 0 -1
4294 239 10 0.06 1.958179853806646 12.796773331636441 22.131309934413334 0 1 -1
4029 224 15 0.115 7.75400753628384 4.317662148199865 28.234332012041662 1 -1 -1
4031 224 17 0.06 10.841204275592126 2.7597161823451595 27.214324301461694 1 -1 -1
5701 317 13 0.115 5.672250881383688 3.6115811905296553 28.84110290524925 1 -2 -1
2277 127 9 0.06 8.190741305898229 2.730831873440948 30.149216239551333 -1 0 0
4802 267 14 0.115 4.892045843364132 8.819030656818164 30.39774117055457 0 1 -1
4022 224 8 -0.065 9.805090705789578 2.9999349455789313 26.934214212932183 1 -1 -1
4021 224 7 -0.115 9.539202990486384 4.485072947461876 26.94660868026643 1 -1 -1
4025 224 11 0.06 11.080805087672672 4.011455856135699 24.78680789388376 1 -1 -1
4016 224 2 -0.115 10.381969488037123 5.449756474238045 26.274502354416747 1 -1 -1
3877 216 7 -0.115 1.9819097960374645 13.330957015293713 30.119029328079975 -1 0 -1
5693 317 5 -0.115 4.900282160270484 3.8110065221449494 26.761247777002108 1 -2 -1
4020 224 6 -0.115 8.447990965156416 4.994044363041224 27.78352583809433 1 -1 -1
1193 67 5 -0.115 7.785405231065091 14.729604496440754 22.86101928064615 -2 -1 0
4019 224 5 -0.115 8.216140058769316 6.369521689914499 27.752691991969705 1 -1 -1
4803 267 15 0.115 4.174395838239048 11.069653901833158 31.33829681816474 0 1 -1
1194 67 6 -0.115 7.379831409016472 13.421928108794619 23.258083869600565 -2 -1 0
5694 317 6 -0.115 3.76141194889386 4.118776630452324 26.012888090183186 1 -2 -1
4018 224 4 -0.115 9.029309559849466 7.30862794255457 27.074909011670847 1 -1 -1
4017 224 3 -0.115 10.079791373029467 6.781585260162339 26.300135758058733 1 -1 -1
2269 127 1 -0.065 8.61492566345701 3.10545441820559 31.121037463446452 -1 0 0
4856 270 14 0.115 10.192348470157643 14.761592248237577 26.112993352418908 0 2 -2
1203 67 15 0.115 7.715143633570104 12.577880796582958 22.552261902999454 -2 -1 0
2295 128 9 0.06 6.554811831156915 7.224301329650366 31.398251036378763 1 2 -1
4846 270 4 -0.115 11.097942115548127 15.647751348467862 27.83849512449193 0 2 -2
5692 317 4 -0.115 4.843328293178004 3.799922355616924 28.149636441414774 1 -2 -1
2287 128 1 -0.065 7.214445044773055 6.527039431951621 31.903151316900527 1 2 -1
5702 317 14 0.115 5.848881337272962 3.5874864244072944 26.271224303529703 1 -2 -1
4028 224 14 0.115 7.388177915325905 6.7700257995345865 28.290445602122535 1 -1 -1
2296 128 10 0.06 6.62607534765285 5.622706611700206 31.829029283107513 1 2 -1
4027 224 13 0.115 8.752498455969128 8.33785996719125 27.059725194171666 1 -1 -1
4838 269 14 0.115 9.420715990439806 10.684825809673804 22.849297999343012 1 -1 -1
2297 128 11 0.06 8.098019299512345 6.287041298490142 31.2375353230013 1 2 -1
5703 317 15 0.115 3.8009399953293386 4.088611282787058 24.942588062275096 1 -2 -1
2576 144 2 -0.115 11.878380466449514 6.029386740873484 31.159431540153882 1 0 0
2279 127 11 0.06 7.831402387221096 3.2162755029741588 31.795581629523674 -1 0 0
2582 144 8 -0.065 11.553208394441768 8.234238126797727 29.857230197604768 1 0 0
2584 144 10 0.06 10.474134451777878 5.380745297445204 29.54193140392246 1 0 0
3888 216 18 0.06 2.654796292616126 13.062961737044741 28.10676549249822 -1 0 -1
4024 224 10 0.06 11.599659015048402 5.669472493767911 24.51869862794388 1 -1 -1
3793 211 13 0.115 3.345674844721474 5.301299055716818 32.08884745268478 -1 0 -2
2591 144 17 0.06 11.141405989251258 9.200784367391641 30.191562894292662 1 0 0
4030 224 16 0.06 9.06683054124403 2.4065919177333295 27.519114927247617 1 -1 -1
5700 317 12 0.115 3.458224961880925 3.9742348171426833 29.886859615844056 1 -2 -1
3879 216 9 0.06 3.5297254543310164 15.211944227188424 28.861091863754545 -1 0 -1
2581 144 7 -0.115 11.88474688648159 7.439556902499796 31.14685153482463 1 0 0
1168 65 16 0.06 5.6526932716700715 8.491282161591482 24.949787985221374 -1 1 -2
2589 144 15 0.115 12.025834132158097 9.123665846049132 32.40342955618855 1 0 0
3882 216 12 0.115 2.9548729131028377 15.600875932173595 32.565868250372034 -1 0 -1
1169 65 17 0.06 4.61377503249751 7.534106997333736 25.805959423149492 -1 1 -2
2575 144 1 -0.065 11.580598788453562 5.303632662234243 29.84285911623726 1 0 0
5247 292 9 0.06 12.127576655361334 13.609148339273275 24.893315864182092 0 0 2
4608 256 18 0.06 6.747401755805563 3.4871975407646554 24.127911600321237 0 1 -1
4015 224 1 -0.065 11.424633146752221 4.963547298952713 25.311389713389094 1 -1 -1
4597 256 7 -0.115 8.163126079447792 2.7995786134892584 22.581512311166787 0 1 -1
4100 228 14 0.115 8.709152640867782 15.070153977518322 32.429514373837776 1 -1 1
5691 317 3 -0.115 3.5676219045645694 4.022585567298476 28.789966841785763 1 -2 -1
4855 270 13 0.115 12.115013257881458 15.24880494200323 27.563057452386875 0 2 -2
5695 317 7 -0.115 2.5173139260355337 4.344299683456686 26.63869284222322 1 -2 -1
5690 317 2 -0.115 2.4174023380613927 4.363931207712239 28.0964984380572 1 -2 -1
2592 144 18 0.06 10.749584354188757 7.723514376246012 29.27854522740242 1 0 0
4598 256 8 -0.065 7.5627694530724785 3.8756539665857117 23.523146964060828 0 1 -1
3785 211 5 -0.115 1.9855504328574043 6.930943064320252 31.71272077922166 -1 0 -2
4847 270 5 -0.115 9.958203987566069 15.300772373548288 27.03893598321153 0 2 -2
4606 256 16 0.06 7.089506805042672 4.730276573682799 22.979540607989154 0 1 -1
1190 67 2 -0.115 5.940686569110128 14.29159492444926 25.062042460017956 -2 -1 0
1205 67 17 0.06 6.014365648730506 11.24781523326423 23.88066103094624 -2 -1 0
4026 224 12 0.115 10.793236364100594 7.435638050685428 25.75032142636183 1 -1 -1
4804 267 16 0.06 4.604830276432587 13.324231179771246 31.403554631157945 0 1 -1
3682 205 10 0.06 10.700761283646576 10.810370006410981 28.049728367167422 0 -2 1
1206 67 18 0.06 5.319951458298128 11.816379846630952 25.36258465482382 -2 -1 0
1197 67 9 0.06 5.512543365145056 13.43342571503776 26.968670320255345 -2 -1 0
3872 216 2 -0.115 2.52900602321715 14.521716725314292 30.670216726918397 -1 0 -1
1189 67 1 -0.065 5.078494393171699 14.165423723587192 26.307677411503224 -2 -1 0
1198 67 10 0.06 4.062297742926564 13.810060448191756 26.09706753796717 -2 -1 0
3538 197 10 0.06 12.090345841322796 15.155819811474757 31.95653169504523 -1 0 0
4607 256 17 0.06 8.392227208240985 4.306458062440839 24.121033690183065 0 1 -1
1196 67 8 -0.065 6.30860362142826 11.791197951003928 24.829680161652593 -2 -1 0
6080 338 14 0.115 5.3993407356934116 3.0851429093583183 32.593311808517015 3 2 -1
5249 292 11 0.06 11.624322175371837 15.03457937951578 23.83588676418124 0 0 2
1161 65 9 0.06 3.661313590742968 10.514625970708336 28.133392990368403 -1 1 -2
3690 205 18 0.06 11.563297459076404 9.371288931650712 24.75313925614861 0 -2 1
2270 127 2 -0.115 9.664812687602637 2.003022956719444 31.52782044392725 -1 0 0
1153 65 1 -0.065 2.8811441264677753 9.86824631235976 27.733814842246954 -1 1 -2
4800 267 12 0.115 8.253557994232128 10.634441490322446 28.467932090519838 0 1 -1
3681 205 9 0.06 11.261081270239634 12.276215820803824 27.325288772036377 0 -2 1
4805 267 17 0.06 5.849122042055949 14.250879165347985 30.683009270802952 0 1 -1
1157 65 5 -0.115 2.5031309490393303 10.294021003010045 23.435539899702206 -1 1 -2