LAMMPS data file via write_data, version 29 Sep 2021, timestep = 1000000

6561 atoms
9 atom types
5832 bonds
8 bond types
9477 angles
13 angle types
8748 dihedrals
12 dihedral types
2916 impropers
4 improper types

-0.6657603578188875 43.66576035782168 xlo xhi
-0.6657603578188875 43.66576035782168 ylo yhi
-0.6657603578188875 43.66576035782168 zlo zhi

Masses

1 12.011
2 18.998
3 18.998
4 18.998
5 12.011
6 15.999
7 1.008
8 1.008
9 1.008

Pair Coeffs # lj/cut/coul/long/omp

1 0.062 3.25
2 0.061 2.94
3 0.061 2.94
4 0.061 2.94
5 0.066 3.5
6 0.17 3.07
7 0.03 2.5
8 0.03 2.5
9 0 0

Bond Coeffs # harmonic/omp

1 367 1.332
2 367 1.332
3 367 1.332
4 268 1.529
5 320 1.41
6 340 1.09
7 340 1.09
8 553 0.945

Angle Coeffs # harmonic/omp

1 77 109.1
2 77 109.1
3 50 109.5
4 50 109.5
5 37.5 110.7
6 37.5 110.7
7 55 108.5
8 77 109.1
9 50 109.5
10 35 109.5
11 35 109.5
12 33 107.8
13 50 109.5

Dihedral Coeffs # opls/omp

1 0 0 0.54 0
2 4.478 -2.175 0 0
3 0 0 0.314 0
4 0 0 0.54 0
5 0 0 0.314 0
6 0 0 0.314 0
7 0 0 0.314 0
8 0 0 0.314 0
9 0 0 0.54 0
10 0 0 0.476 0
11 0 0 0.314 0
12 0 0 0.476 0

Improper Coeffs # cvff/omp

1 0 -1 2
2 0 -1 2
3 0 -1 2
4 0 -1 2

Atoms # full

384 43 6 -0.635 2.855013598660216 2.1342218075144412 8.365151841310984 0 0 0
387 43 9 0.429 2.121345976109777 2.7502099888578364 8.566750709889073 0 0 0
4408 490 7 0.083 6.589069183049059 1.6416899692780382 5.8625033077045 1 0 1
1435 160 4 -0.206 2.6343323064911144 3.38155253340692 1.752354428521876 -1 1 1
1436 160 5 0.126 4.494293636456508 2.407963007052175 2.865182742109814 -1 1 1
4216 469 4 -0.206 10.031084127655964 4.139916335860924 7.842577790051313 0 2 0
4214 469 2 -0.206 8.182355109963614 3.1254293125993815 7.179195047951125 0 2 0
2704 301 4 -0.206 9.391990733641867 2.923462014568848 4.320410346208747 -1 2 1
3101 345 5 0.126 10.159314053148833 -0.12399391833250206 9.60567171226743 -1 1 1
4402 490 1 0.532 5.61497107749876 -0.23507437550395704 6.344946482906339 1 0 1
4406 490 5 0.126 5.7951594344812705 1.2989380866806541 6.502272909791544 1 0 1
4409 490 8 0.083 6.16317334120154 1.391320189747832 7.527540416909399 1 0 1
3098 345 2 -0.206 9.468816301126346 1.2136950646066285 7.750197528673701 -1 1 1
4640 516 5 0.126 -0.28448794557983637 0.299267479921669 1.805985109881398 -1 0 0
386 43 8 0.083 3.5827299997584556 0.36942324542193905 9.05720918176434 0 0 0
1438 160 7 0.083 5.053117759818985 2.4702016708530685 1.8624284001298166 -1 1 1
1432 160 1 0.532 2.9819371863108364 2.4244130768496253 2.6423533100040584 -1 1 1
4642 516 7 0.083 0.21856374184599614 1.0619115498187286 1.2281666321024558 -1 0 0
4407 490 6 -0.635 4.640876939348116 2.1342145459158295 6.300677717384237 1 0 1
1440 160 9 0.429 4.695189043716473 3.1171305816004287 4.610068117154782 -1 1 1
2703 301 3 -0.206 8.93325165203839 0.8945210402131927 5.140093467886941 -1 2 1
1437 160 6 -0.635 4.837318082058129 3.445092647099193 3.748845166546511 -1 1 1
4410 490 9 0.429 4.014118343889015 2.0044555294261284 7.081198152288904 1 0 1
1433 160 2 -0.206 2.6666270036167243 1.2808778773195133 2.125303878798484 -1 1 1
4404 490 3 -0.206 4.84235572610595 -0.5258588756335488 5.243199959231516 1 0 1
2702 301 2 -0.206 9.449528383236887 1.2494006347183546 3.0766255111139107 -1 2 1
6091 677 7 0.083 -0.2943146873341162 3.5511820605043085 1.772132217454362 2 0 0
1439 160 8 0.083 4.738494408002769 1.465859038528873 3.3869235755974745 -1 1 1
385 43 7 0.083 1.8184770823236769 0.5675130130098531 8.912161026273003 0 0 0
3103 345 7 0.083 9.696475859924806 0.6235198868239245 10.25620014015439 -1 1 1
4643 516 8 0.083 0.649808414752544 -0.20106916993828655 2.257085106051697 -1 0 0
2701 301 1 0.532 9.7304212437089 1.6625778484679832 4.3065403472415955 -1 2 1
6451 717 7 0.083 6.1341183977771685 4.725124736422925 2.009701488694316 1 1 0
6394 711 4 -0.206 -0.15624562931723895 3.746205687662765 8.253793734792913 1 -1 1
6298 700 7 0.083 9.647049754161936 2.3971448127821424 -0.3390743672982125 1 0 1
5223 581 3 -0.206 6.393621383918575 0.9804612998294404 0.30756650911786365 0 0 1
4213 469 1 0.532 8.73112167223371 4.306576859815889 7.594429359828239 0 2 0
1434 160 3 -0.206 2.2734959974987268 2.5478805992504188 3.7480593171727716 -1 1 1
383 43 5 0.126 2.7570344759774543 1.0312306563577551 9.213592869515999 0 0 0
4219 469 7 0.083 8.068672650771951 3.9214436584202716 9.518341842813573 0 2 0
6446 717 2 -0.206 8.655415773358323 4.466917023678892 1.2374324505889926 1 1 0
6396 711 6 -0.635 -0.3343115725134446 1.1361919699904486 7.266272483199031 1 -1 1
3194 355 8 0.083 10.238987288962704 -0.506869986927763 1.1427892344990136 0 0 1
4217 469 5 0.126 7.926407851487456 4.733637885956259 8.820787808017037 0 2 0
4220 469 8 0.083 6.8995665082349245 4.638705506766426 8.58042970525124 0 2 0
6138 682 9 0.429 7.147141709283522 3.590513249619288 12.715362385458874 1 0 -1
2833 315 7 0.083 3.22179455661597 4.12002885110655 21.353477098322774 1 1 1
2183 243 5 0.126 4.2300585116122384 4.804017175021871 17.233796170895737 0 1 -1
2187 243 9 0.429 5.477262724289137 3.411336180019957 16.697023959643 0 1 -1
2182 243 4 -0.206 5.217516929815309 4.040896381320163 19.192285759295995 0 1 -1
2184 243 6 -0.635 5.2901692448995306 4.3489070990632115 16.447117344990314 0 1 -1
1102 123 4 -0.206 8.971625624505975 0.580231076320145 18.294608835631323 -1 1 0
4468 497 4 -0.206 4.298866277418529 2.4358972309679534 14.642783425754052 0 -1 0
6135 682 6 -0.635 7.336321462316473 2.9694617414740385 12.041487475216352 1 0 -1
6134 682 5 0.126 6.974173021615581 1.690457421848702 12.404777621163708 1 0 -1
2152 240 1 0.532 0.4471360314523629 2.277592318102894 18.655495749297494 0 2 0
381 43 3 -0.206 2.336759819798404 0.3051861534906135 11.308019477364553 0 0 0
4470 497 6 -0.635 5.045360454656079 1.1519106028513602 16.965200850828783 0 -1 0
6137 682 8 0.083 6.939097357235671 1.298923961224563 11.38137163897932 1 0 -1
2370 264 3 -0.206 8.78169330688645 1.7524822317343327 20.910902640001975 0 0 -1
6130 682 1 0.532 7.880609998822779 0.7764910088779664 13.3224030788107 1 0 -1
3406 379 4 -0.206 -0.6397232363064672 1.507288002473548 12.087384992005388 0 1 0
2154 240 3 -0.206 0.5632640785001175 1.091927425187117 18.151931289491657 0 2 0
5757 640 6 -0.635 10.055109837809374 4.799056998747247 11.008300794468786 1 1 1
3887 432 8 0.083 9.278628212700493 3.852296802665444 16.24562628150197 1 0 2
2155 240 4 -0.206 0.23097887258277106 3.0622256862890738 17.551333229989268 0 2 0
2156 240 5 0.126 -0.6295005651831641 2.386502884599642 19.739364901356694 0 2 0
4465 497 1 0.532 3.4743579368781616 1.527186933951795 15.13776462680978 0 -1 0
1197 133 9 0.429 -0.2706754341769217 4.763359275866513 13.606580192017908 0 0 -1
380 43 2 -0.206 1.6651215055268702 2.314632099454104 10.837325744858072 0 0 0
4469 497 5 0.126 4.223061986412345 0.49880779471065617 15.996115185123816 0 -1 0
4661 518 8 0.083 0.36331103804287324 0.26001882184834557 15.216462890627907 1 0 -1
4466 497 2 -0.206 2.828837993552643 0.9178060521546185 14.084503688675726 0 -1 0
3503 390 2 -0.206 3.5494792415412237 0.4946293737700309 20.91951384195758 1 0 0
2502 278 9 0.429 6.544075277434343 4.387306703892753 15.22828015599049 0 0 0
5760 640 9 0.429 9.834115502475377 4.278313913869933 11.824739043111684 1 1 1
2186 243 8 0.083 3.4843660367281344 4.093424202203833 17.34520752923801 0 1 -1
6133 682 4 -0.206 8.288985968567214 1.4184662292165928 14.431663388935618 1 0 -1
382 43 4 -0.206 3.764202092883109 1.8025739661529254 11.140065552553727 0 0 0
6131 682 2 -0.206 7.078982184847392 -0.2589168388343132 13.647396135932429 1 0 -1
4467 497 3 -0.206 2.6020219005972494 2.2306746947615204 15.83322826388594 0 -1 0
6136 682 7 0.083 5.945332137435255 1.7527467357582984 12.766835207180405 1 0 -1
6132 682 3 -0.206 8.932784578158659 0.3426439634510765 12.629131079438997 1 0 -1
4471 497 7 0.083 4.840655794994229 0.055955461859245825 15.251182079135159 0 -1 0
2159 240 8 0.083 -0.2456328341107365 1.9541458811686487 20.60218705979903 0 2 0
2153 240 2 -0.206 1.6863191762035363 2.549209095384506 19.164849943478938 0 2 0
2499 278 6 -0.635 7.260285297097077 4.443939437467339 14.55258797621939 0 0 0
2369 264 2 -0.206 6.650098268005889 2.272201827412148 21.188842856438797 0 0 -1
4473 497 9 0.429 5.640799662561266 0.48461145875308653 17.266049607165407 0 -1 0
4472 497 8 0.083 3.549629189602134 -0.22302233735663973 16.518943981845702 0 -1 0
379 43 1 0.532 2.612148956392471 1.4263606046463324 10.70249913619112 0 0 0
3884 432 5 0.126 10.351786805304602 3.5382695145368266 16.222089434746902 1 0 2
1195 133 7 0.083 1.6165108675313538 4.744055730849826 14.481436172896382 0 0 -1
3411 379 9 0.429 -0.4802697930880627 2.5211872087926035 14.70754357494206 0 1 0
2372 264 5 0.126 8.057614260579673 2.2843772369890587 23.11385658131598 0 0 -1
2373 264 6 -0.635 6.908783806683946 2.2266818775666533 23.972313371544715 0 0 -1
2324 259 2 -0.206 2.718040473985588 1.8527989436980272 24.3470492455221 1 1 1
3490 388 7 0.083 4.198565288026225 1.4928118645197381 28.461104607553867 0 1 -1
3484 388 1 0.532 3.8094028690253308 1.9816118590183414 30.532572643593927 0 1 -1
5395 600 4 -0.206 7.2114413826704045 -0.386157750898216 28.59486443583646 -1 2 0
2376 264 9 0.429 6.740892577575762 1.2971672833821253 24.108327320671286 0 0 -1
796 89 4 -0.206 -0.33294916309709754 0.8213890664465253 22.925867114050504 1 -1 0
5399 600 8 0.083 9.571137579016414 1.8463430711076056 27.847967814154575 -1 2 0
2326 259 4 -0.206 2.6000914891845333 -0.11558646124445704 25.472014379432704 1 1 1
3487 388 4 -0.206 3.9382672826552194 3.0030823996735876 31.338676484160263 0 1 -1
5397 600 6 -0.635 8.98302970017669 0.3962139826066111 26.39057175522426 -1 2 0
5393 600 2 -0.206 8.197492554271003 1.2497241489304656 29.72956495702612 -1 2 0
2088 232 9 0.429 6.047389587192962 3.7668003590401047 24.7037474449675 0 2 1
3488 388 5 0.126 4.214525580751856 2.4138082751565038 29.05963614754559 0 1 -1
5396 600 5 0.126 9.100645246903143 0.8238476920248792 27.782750143754676 -1 2 0
6049 673 1 0.532 8.418215597483433 4.452950123438724 30.29303820932564 1 1 0
2374 264 7 0.083 8.313385121407995 3.35082230255438 22.886262851437078 0 0 -1
2087 232 8 0.083 6.560541252167971 4.33659574742955 26.63423037373941 0 2 1
6051 673 3 -0.206 7.502039926496037 3.9109892159488076 31.07353839327025 1 1 0
5392 600 1 0.532 7.750720600125645 0.8548908195733653 28.545668731264193 -1 2 0
3489 388 6 -0.635 3.3141083795346655 3.3627561082040045 28.423507301016095 0 1 -1
3491 388 8 0.083 5.2034407515019385 2.825252222942429 28.969831346969386 0 1 -1
2330 259 8 0.083 1.434577790823505 2.7641898339749784 26.041640195251233 1 1 1
5398 600 7 0.083 9.840594589740707 0.2837144159123487 28.317789577426797 -1 2 0
2328 259 6 -0.635 1.5326727272999614 1.480376197366251 27.623718948616055 1 1 1
5394 600 3 -0.206 6.925141545771705 1.7434836798189388 27.988554714073693 -1 2 0
2329 259 7 0.083 0.6251968831823687 1.1797255026741016 25.776200873037777 1 1 1
2368 264 1 0.532 7.737984216873592 1.6597848269215651 21.758937335068264 0 0 -1
2327 259 5 0.126 1.482158455451323 1.704211147620068 26.21844804310141 1 1 1
2375 264 8 0.083 8.904827179072397 1.8801629893462404 23.569583005534824 0 0 -1
6050 673 2 -0.206 9.557088676311967 3.9329476012198907 30.670061735235894 1 1 0
2325 259 3 -0.206 3.758532740593282 1.5974733146006597 26.140344763673383 1 1 1
3485 388 2 -0.206 2.554632257894185 1.3943456946327486 30.598037582433715 0 1 -1
2331 259 9 0.429 0.634149036774452 1.197319936589004 27.850241835531246 1 1 1
793 89 1 0.532 -0.60007307559942 -0.42350252708219893 23.208461710796517 1 -1 0
2323 259 1 0.532 2.7023570646626798 1.2136123105667298 25.47879605332139 1 1 1
3492 388 9 0.429 2.5207154440047908 2.8343308600055694 28.168062015020013 0 1 -1
3693 411 3 -0.206 -0.41715766075690325 3.91697034429968 27.029037855969587 1 -1 -1
2371 264 4 -0.206 7.424962559298111 0.446370914799499 21.960939513496513 0 0 -1
3505 390 4 -0.206 4.793517262244 0.3466256040083946 22.677078879575298 1 0 0
2834 315 8 0.083 3.5579944829476395 3.5871392391205466 23.01753346097291 1 1 1
5400 600 9 0.429 9.753099188788271 -0.16500306567130352 26.188479800637847 -1 2 0
2831 315 5 0.126 3.5450532527701886 4.42989277326066 22.310701258027485 1 1 1
3502 390 1 0.532 3.9901871060822818 -0.29388501824639707 21.883270023408546 1 0 0
3130 348 7 0.083 0.6169314081980632 4.822534284260856 31.20006464472759 1 -1 0
3486 388 3 -0.206 4.724718132052805 1.0435279221664238 30.902243359975905 0 1 -1
2085 232 6 -0.635 6.02600229862067 4.748600397137135 24.76005290810354 0 2 1
6052 673 4 -0.206 8.234830870586405 4.119730230951502 29.03628973914364 1 1 0
3504 390 3 -0.206 2.9825649854698266 -0.5319496935513053 22.662569544997442 1 0 0
2835 315 9 0.429 5.093688799671824 4.818883411035786 23.295645343662855 1 1 1
5225 581 5 0.126 5.662054642466124 2.2880746965553946 42.74541061761483 0 0 0
5628 626 3 -0.206 3.5430997803632622 3.28159983540481 37.13476492140711 1 2 0
5024 559 2 -0.206 4.676177182353287 3.7875435206862496 34.39817671969523 1 1 -1
2610 290 9 0.429 6.800359110727552 0.5875568222051306 39.889951880923135 0 1 0
6295 700 4 -0.206 9.26913496611088 3.211297581390475 41.62723808015784 1 0 0
5228 581 8 0.083 6.169423445858994 2.557266371434172 41.793408310652616 0 0 0
5226 581 6 -0.635 5.606830666900887 3.4568198267741646 43.52462306389397 0 0 0
2607 290 6 -0.635 7.19093002355042 -0.2581602168369864 39.97401269860972 0 1 0
4683 521 3 -0.206 0.8136730729286712 1.2909044658928912 37.8070195915087 0 1 -1
5345 594 8 0.083 0.15886800860199646 2.714225515077025 40.02605269492554 1 0 -1
2012 224 5 0.126 9.01518147262592 4.837903033137936 36.38586929905087 -1 -1 0
5630 626 5 0.126 5.794238504664181 3.048277678147051 37.99301558758576 1 2 0
2606 290 5 0.126 8.255370378853229 -0.29204656857629374 39.044677854040344 0 1 0
5626 626 1 0.532 4.263856078704491 2.88163616604143 38.20283828033677 1 2 0
5222 581 2 -0.206 7.873052771412183 1.3724592986383222 43.19335158781373 0 0 0
5341 594 4 -0.206 0.7213711674070855 1.170574361102856 42.08247154908135 1 0 -1
5338 594 1 0.532 1.3378721182461315 2.2807372995768214 41.80009333470313 1 0 -1
5221 581 1 0.532 6.553550699854307 1.2180865655449427 43.38291055604984 0 0 0
5632 626 7 0.083 6.025758804827936 4.0347388965073705 37.925783938317 1 2 0
5342 594 5 0.126 0.2810140978885697 3.0700711476032803 41.04530684880753 1 0 -1
5339 594 2 -0.206 2.2896882612886738 2.143703100483252 40.95709238961162 1 0 -1
2013 224 6 -0.635 8.212268103245659 3.8365882520956736 35.7414864599784 -1 -1 0
4686 521 6 -0.635 -0.6122725324955267 3.75171760532019 37.75330474107445 0 1 -1
2010 224 3 -0.206 10.27671513520385 3.421827093961458 37.56983253592047 -1 -1 0
5227 581 7 0.083 4.614650558121992 1.8879233684171788 42.53190832378119 0 0 0
5627 626 2 -0.206 3.8696372222751614 3.5558084862393122 39.31374758209615 1 2 0
4688 521 8 0.083 0.7780573471027425 3.4902354252237395 36.185216417873576 0 1 -1
5224 581 4 -0.206 6.272840760411565 0.09855916844463508 42.7727808901575 0 0 0
5340 594 3 -0.206 1.7562597931376485 2.8989098391471493 42.930216708575344 1 0 -1
2008 224 1 0.532 9.612289133373483 4.567753677885836 37.77385180449842 -1 -1 0
4685 521 5 0.126 -0.21426694096362964 3.0358741104674865 36.57489120466343 0 1 -1
5631 626 6 -0.635 6.605135295912099 2.4465414027717687 39.097384428685125 1 2 0
4681 521 1 0.532 -0.11573005667351621 1.5805311171396097 36.87469837547951 0 1 -1
2016 224 9 0.429 7.6951166498765335 4.220545041862472 35.06795883832656 -1 -1 0
2009 224 2 -0.206 8.677947621836312 4.262725943253395 38.762674667793384 -1 -1 0
5346 594 9 0.429 0.634132166906779 4.740772718360125 40.06134915857862 1 0 -1
4682 521 2 -0.206 0.11998121907399373 0.9400119083001723 35.73930752478203 0 1 -1
5343 594 6 -0.635 0.8947298700808513 4.319489929962517 40.867885357578515 1 0 -1
5634 626 9 0.429 7.13542991290651 3.26594850497666 39.34219376150141 1 2 0
2608 290 7 0.083 8.787302881127593 0.633976563093128 38.96783828722708 0 1 0
2604 290 3 -0.206 6.716795083516104 -0.4787889865588356 37.308166631636894 0 1 0
5229 581 9 0.429 5.101619913132966 4.056132500533002 43.00239524073173 0 0 0
5633 626 8 0.083 6.055695240986067 2.5794161472573878 37.091600944771706 1 2 0
5629 626 4 -0.206 4.112795101218602 1.6258326957618325 38.476973098219744 1 2 0
3643 405 7 0.083 9.890899688449542 1.247989674489302 33.97887569748661 -1 1 0
2760 307 6 -0.635 0.6249476983101911 6.9643582320544475 6.376982972353707 1 0 0
2763 307 9 0.429 1.1871179995955987 6.895159865714861 7.178796312629505 1 0 0
6402 712 3 -0.206 2.0389595362552013 7.73961775602848 -0.24819592866498236 1 1 -1
3949 439 7 0.083 6.451233015284341 8.253210291913831 8.556789343554161 -1 2 0
4264 474 7 0.083 3.388844783812853 7.97157082526844 8.427607446011999 1 0 1
6447 717 3 -0.206 8.707301305127888 6.633230253266449 1.6432448412334189 1 1 0
6448 717 4 -0.206 8.331430130085286 5.251484685250805 3.241400949855396 1 1 0
2756 307 2 -0.206 3.062124801096239 6.924089381095007 4.969817255274765 1 0 0
2762 307 8 0.083 0.07321304831633157 5.772244546850164 4.8297089734525045 1 0 0
4221 469 9 0.429 9.176471818251478 5.7342138530846665 9.94856418828301 0 2 0
5135 571 5 0.126 5.147952202891318 9.87494117812716 0.801315564957006 1 -1 1
5138 571 8 0.083 5.0335100735377925 9.972318961187257 1.8612072795219219 1 -1 1
5136 571 6 -0.635 5.747251049801951 8.616260507441442 0.5776186398517246 1 -1 1
4180 465 4 -0.206 1.1521653128881557 9.84195260731185 9.898047396357683 1 0 0
6452 717 8 0.083 6.40414809645447 5.727473455085958 0.6399411528990069 1 1 0
5317 591 7 0.083 1.7313368161308138 9.713930507743298 5.833298429881014 2 -1 0
6450 717 6 -0.635 5.955180035882668 6.731462984602786 2.467998512546899 1 1 0
6449 717 5 0.126 6.587706331822302 5.6599576572829875 1.7044871116955058 1 1 0
2761 307 7 0.083 1.3108696788152556 5.070823520529004 5.924344045220165 1 0 0
3948 439 6 -0.635 8.119491493433939 8.01748137022437 7.384955634367964 -1 2 0
4260 474 3 -0.206 3.4665595332241472 5.100812801017174 8.880261662132666 1 0 1
5319 591 9 0.429 -0.3530858285224681 10.26436597046689 6.433660504257938 2 -1 0
5139 571 9 0.429 5.778575620014758 8.182272960609398 1.4212657085508538 1 -1 1
2757 307 3 -0.206 2.2719529136166257 5.659169990250881 3.374919518037608 1 0 0
3944 439 2 -0.206 6.4191809680706164 8.28601243600221 5.245098149889512 -1 2 0
6407 712 8 0.083 4.17961952763663 6.080683237984328 -0.2818073022300772 1 1 -1
2758 307 4 -0.206 1.4658960548386033 7.605362710750617 3.662058999399368 1 0 0
4266 474 9 0.429 1.0379452777565177 6.854728447147357 9.56267383235419 1 0 1
4218 469 6 -0.635 8.450584773919788 5.962460235154579 9.333324127072926 0 2 0
2755 307 1 0.532 1.9911119489648512 6.543004405746688 4.3371933682922705 1 0 0
3947 439 5 0.126 6.766509396734641 8.440622905574417 7.560870284446175 -1 2 0
4261 474 4 -0.206 4.863692308113249 6.4421388562527095 9.785938568475332 1 0 1
4239 471 9 0.429 9.591319092848734 8.48807817457514 6.42193548803514 1 1 0
3951 439 9 0.429 8.21040867256317 7.2304190219523665 7.933856319165379 -1 2 0
4258 474 1 0.532 3.525722569259146 6.1457616244107385 9.739820631252021 1 0 1
3943 439 1 0.532 5.861457987477515 7.86445049708413 6.4194251993195985 -1 2 0
3950 439 8 0.083 6.688834360433351 9.494644361533984 7.3220932259083025 -1 2 0
4237 471 7 0.083 9.962065678648306 6.921351885262164 5.250306696282033 1 1 0
6445 717 1 0.532 8.106442850162836 5.465868572185057 1.9632520861975393 1 1 0
6453 717 9 0.429 6.040758509950349 6.420141026697495 3.3020959414761695 1 1 0
4215 469 3 -0.206 8.652532511097721 5.207729964068815 6.539222998695908 0 2 0
3945 439 3 -0.206 5.838877728056662 6.5425971306201305 6.492153385188087 -1 2 0
4868 541 8 0.083 8.60734480319149 10.048966044931037 3.950897135203877 1 -1 0
4262 474 5 0.126 2.8229156401862037 7.415206800448274 9.21903775220673 1 0 1
2759 307 5 0.126 0.9739943243959943 5.9904614719050056 5.366725313406784 1 0 0
4263 474 6 -0.635 1.5476336106460011 6.988594298081701 8.763135372321146 1 0 1
5137 571 7 0.083 4.283429199677741 9.909677493621775 0.23008874382774938 1 -1 1
4265 474 8 0.083 2.7013487087774766 8.066474562264835 10.092830274572252 1 0 1
3946 439 4 -0.206 4.683755179582109 8.417403022992632 6.575330746179416 -1 2 0
6406 712 7 0.083 2.6465725330381233 5.377735263225119 -0.28356205189267447 1 1 -1
4779 531 9 0.429 -0.42944699775640166 8.26310444610348 6.420534273135217 1 0 1
2840 316 5 0.126 10.356801912123974 10.316137473395598 13.195976524888627 0 0 -2
2428 270 7 0.083 6.16550185313096 10.16958702380964 13.43437339111677 1 -1 1
2497 278 4 -0.206 4.8978375747144725 6.181416797923191 14.555684489833862 0 0 0
5388 599 6 -0.635 10.278725115990808 5.839350400010655 18.882453420518576 0 1 0
2498 278 5 0.126 7.2421658986219075 5.72883622293387 14.133216752794153 0 0 0
4071 453 3 -0.206 -0.05395651808329616 5.703313075016759 18.35525469784914 2 1 0
2500 278 7 0.083 7.465236657477373 6.1290676389232495 15.108743817332044 0 0 0
2181 243 3 -0.206 3.6177107112830025 5.462356134322851 19.304602245190484 0 1 -1
3741 416 6 -0.635 6.977506038102282 6.4771473960712616 20.945559557177337 2 0 0
1287 143 9 0.429 0.02810047826383355 6.239653450485719 11.74953134218512 -1 1 0
2425 270 4 -0.206 7.054967642300143 9.130741147616627 11.239797355088394 1 -1 1
1192 133 4 -0.206 0.06680428454076637 6.233088529209862 15.895377886087406 0 0 -1
4069 453 1 0.532 0.15579600171338037 6.47035715222647 19.465280530668185 2 1 0
4072 453 4 -0.206 1.3861404831993531 6.930148352253493 19.269145869545493 2 1 0
1194 133 6 -0.635 0.10638581610250086 5.565414001617505 13.225301387919618 0 0 -1
2336 260 5 0.126 7.409292253960096 9.448659939072211 18.4360531075965 0 0 0
2334 260 3 -0.206 6.438707024767647 9.24476098289614 16.285799896313243 0 0 0
2338 260 7 0.083 6.467042110985631 9.462375882611378 19.044646433581498 0 0 0
1190 133 2 -0.206 2.1287602519212854 7.019738683343398 15.914552798536466 0 0 -1
2340 260 9 0.429 7.346279169447609 7.521225185111751 18.893928286765355 0 0 0
2494 278 1 0.532 5.882223672682409 6.2333296080287806 13.616477241856462 0 0 0
1191 133 3 -0.206 0.7009896253505241 8.003168856458013 14.749065377415818 0 0 -1
1284 143 6 -0.635 -0.16606903243459487 6.65240405553943 10.847111962466798 -1 1 0
2337 260 6 -0.635 7.934989055757978 8.081211967657628 18.38640687201768 0 0 0
2496 278 3 -0.206 5.474165681092098 5.514543992402617 12.55072590544097 0 0 0
2332 260 1 0.532 7.1681405569460175 10.062668037145132 17.071204226996787 0 0 0
3744 416 9 0.429 6.279809113945596 5.967619532134298 21.22356566088151 2 0 0
4070 453 2 -0.206 -0.029606829757096498 5.757550776945017 20.607107540106053 2 1 0
2495 278 2 -0.206 6.001864296174238 7.516458521549488 13.312409861114457 0 0 0
5391 599 9 0.429 9.759785064014974 6.670371050158046 18.828637490018274 0 1 0
2839 316 4 -0.206 9.228207703091611 8.36994753301094 14.039178185315313 0 0 -2
1189 133 1 0.532 1.0322293372278997 6.790269347301804 15.19427755157157 0 0 -1
2501 278 8 0.083 7.908677859334979 6.040102135103714 13.341014886731184 0 0 0
3737 416 2 -0.206 8.530989757364331 8.799168238577375 20.97038181730792 2 0 0
2339 260 8 0.083 8.117581716868445 10.017266683739658 18.92888286776504 0 0 0
2180 243 2 -0.206 5.688877181246742 5.986710662445075 18.504117412991782 0 1 -1
1193 133 5 0.126 1.2826228990716233 5.739806933046623 14.060626652874133 0 0 -1
2333 260 2 -0.206 8.337088889777355 10.292175761769743 16.481694806048782 0 0 0
2423 270 2 -0.206 4.851358302953852 9.00279051645737 11.246292051958067 1 -1 1
1196 133 8 0.083 2.122003677646501 6.079328958925657 13.410622528445703 0 0 -1
2422 270 1 0.532 5.913124486214137 9.84841554380315 11.24194569715488 1 -1 1
5389 599 7 0.083 9.851502145852667 6.0105655539065665 20.830544596397324 0 1 0
4259 474 2 -0.206 3.2051187334877076 5.784210682883975 10.926419558141065 1 0 1
2836 316 1 0.532 10.335375955307153 8.738554989541786 13.298543475768241 0 0 -2
2179 243 1 0.532 4.737969375993016 5.1499610129304205 18.61551205263136 0 1 -1
2185 243 7 0.083 3.753734475892799 5.6701525691224255 16.70934183902587 0 1 -1
2837 316 2 -0.206 10.306886929877237 8.232402961917144 12.055458472280131 0 0 -2
4179 465 3 -0.206 1.5489031907038755 10.398390405556864 11.998548493346798 1 0 0
2082 232 3 -0.206 5.83488490024868 6.987079343383336 27.570864909213103 0 2 1
78 9 6 -0.635 1.9351805185973716 5.929928061944571 29.06136132804034 0 0 0
79 9 7 0.083 2.2004930242533036 7.3933841728416905 30.604046053471357 0 0 0
80 9 8 0.083 3.6612906760992403 6.757215275809914 29.820012953031245 0 0 0
5869 653 1 0.532 1.6434047488348993 9.53213865023191 23.10977002018089 1 -1 0
3736 416 1 0.532 7.754998779083511 8.577656739987376 22.004248366106957 2 0 0
81 9 9 0.429 2.587730497441082 5.317527223950007 28.673946066372604 0 0 0
5105 568 2 -0.206 3.2452103180618317 7.981373936978708 32.45202144611131 2 0 -2
3740 416 5 0.126 7.424544001174105 7.10901521120949 22.121603996021356 2 0 0
2086 232 7 0.083 4.777595171201217 4.912872323774476 26.378622139183168 0 2 1
1249 139 7 0.083 10.115898959384793 9.604079119704394 30.398274875384832 -1 0 -1
6187 688 4 -0.206 5.883326956460714 8.21089287349411 30.808213295289594 2 0 -2
3691 411 1 0.532 -0.36941072643029643 5.079948098750499 26.33717812667612 1 -1 -1
2081 232 2 -0.206 5.909359474771797 7.42942979159063 25.55954436607492 0 2 1
6056 673 8 0.083 9.02497159089562 6.466203399620545 29.726060608205916 1 1 0
6189 688 6 -0.635 7.701387108495771 8.816904933973207 28.71869219772912 2 0 -2
4674 520 3 -0.206 7.984998040577112 9.4464964737692 25.8004718707691 0 -1 -2
5872 653 4 -0.206 2.15876698908075 9.428927443647249 21.858688478309567 1 -1 0
3742 416 7 0.083 6.7098698103298275 6.99804737048081 22.95617580271648 2 0 0
6192 688 9 0.429 7.345562491867495 8.65621023907539 27.877198952375792 2 0 -2
2080 232 1 0.532 6.343405005844058 6.5635499890215225 26.444800922880493 0 2 1
77 9 5 0.126 2.611153543361005 7.086936029485612 29.64490936627481 0 0 0
6191 688 8 0.083 5.763671526354145 9.536572701119574 28.68625011346565 2 0 -2
5871 653 3 -0.206 0.9694806160836378 8.41376715684611 23.339304414101726 1 -1 0
2827 315 1 0.532 2.652301947064767 5.526079476978655 22.92967554972146 1 1 1
3132 348 9 0.429 0.05496860090683109 6.029535813389886 29.725122650921552 1 -1 0
6055 673 7 0.083 7.370937928700069 6.255804714193406 30.085840071634532 1 1 0
73 9 1 0.532 2.4312252614276724 8.327015512561282 28.69946555702492 0 0 0
74 9 2 -0.206 2.9099549207169777 8.027722257265038 27.530990937802287 0 0 0
5107 568 4 -0.206 1.535986317805368 9.235827454918812 32.36375148397508 2 0 -2
6185 688 2 -0.206 7.713186321660036 9.23384236295816 31.31430043120761 2 0 -2
75 9 3 -0.206 1.14322955606877 8.58279049210188 28.492289143672078 0 0 0
6188 688 5 0.126 6.744822425126719 9.682878593636447 29.21093990580999 2 0 -2
3694 411 4 -0.206 0.6688427870181006 5.187374347658524 25.541082320123518 1 -1 -1
2828 315 2 -0.206 1.3804853371454913 5.210228454360832 22.71844988662255 1 1 1
3739 416 4 -0.206 8.340070009759275 9.114394166976268 23.105197827498486 2 0 0
2083 232 4 -0.206 7.636069194115102 6.636782967442752 26.37528525131064 0 2 1
76 9 4 -0.206 3.0191038970051487 9.422256133364916 29.20215632884627 0 0 0
3128 348 5 0.126 -0.4457997849612778 5.182557414611594 31.350185468185202 1 -1 0
3743 416 8 0.083 8.444860689026665 6.62725377154176 22.41325585762655 2 0 0
6053 673 5 0.126 8.343918187447116 5.961340349682269 30.4300972101663 1 1 0
2084 232 5 0.126 5.846797799901655 5.095799707268766 26.115759564708117 0 2 1
2829 315 3 -0.206 2.7566531861689363 5.641386717473917 24.261912570733195 1 1 1
5870 653 2 -0.206 2.762758601374254 9.55405638753295 23.845718795424574 1 -1 0
2830 315 4 -0.206 2.929720232458027 6.668594626990725 22.298440948872848 1 1 1
6054 673 6 -0.635 8.59987475441311 6.394065167741397 31.78534272788501 1 1 0
6057 673 9 0.429 9.46808603990004 6.796451745414304 31.836301377981282 1 1 0
3692 411 2 -0.206 -0.07367747920639223 5.998858192605455 27.27065173283559 1 -1 -1
6184 688 1 0.532 6.532030349502918 9.339489092721976 30.686643947634014 2 0 -2
3129 348 6 -0.635 -0.6474402005395545 6.108544554362963 30.33839108350073 1 -1 0
6186 688 3 -0.206 5.786063397812173 10.279286626891155 31.30189252223172 2 0 -2
3738 416 3 -0.206 6.531421998612835 9.111188675378903 21.818526217451677 2 0 0
3131 348 8 0.083 -0.25264188301063406 5.653847091888123 32.3139314322094 1 -1 0
5030 559 8 0.083 5.45558150430422 5.310754047815525 32.50747166480288 1 1 -1
2832 315 6 -0.635 4.867811636454695 4.962556280096731 22.362626579305207 1 1 1
5108 568 5 0.126 3.4555128160010713 9.795659569499133 33.8490103737727 2 0 -2
6403 712 4 -0.206 3.50903329118711 8.1606809095452 42.50889408090695 1 1 -2
5025 559 3 -0.206 4.956731394928957 5.475411319877628 35.74673342425944 1 1 -1
6214 691 4 -0.206 7.77077446929046 6.839852572752671 39.46533332409223 2 1 -1
6216 691 6 -0.635 4.342029684717405 6.805251981631139 39.999354801714674 2 1 -1
5371 597 7 0.083 0.7743477656333702 10.139137432162114 38.95253042061947 2 2 0
5366 597 2 -0.206 -0.28986081897270244 10.397452967519532 41.312905684943 2 2 0
6211 691 1 0.532 6.521969615464254 6.370898185320248 39.38103820389819 2 1 -1
5029 559 7 0.083 5.451348144943321 6.708004302190231 33.315101230862005 1 1 -1
6465 719 3 -0.206 6.121583668662826 9.281064035327802 35.87018808604892 1 0 0
2014 224 7 0.083 9.739577488003405 5.313913021402106 35.70827415407083 -1 -1 0
6215 691 5 0.126 5.630109549419421 7.2906096840225185 40.1226043923667 2 1 -1
6401 712 2 -0.206 1.7546720716752993 6.974357555789421 42.126735629423024 1 1 -2
6404 712 5 0.126 3.3042819706647415 5.9165515079267905 43.34166190623219 1 1 -2
6466 719 4 -0.206 7.350146788781071 9.036122500054658 34.14300839639384 1 0 0
2249 250 8 0.083 2.96529324889617 7.197286902549006 37.38245857971889 0 -1 -1
5106 568 3 -0.206 1.9368448150769293 8.065781616026294 34.01382755753511 2 0 -2
2248 250 7 0.083 1.8532361395774184 8.483197853090994 36.902500155449935 0 -1 -1
2243 250 2 -0.206 -0.21827266557061958 7.318557961825864 37.41050391748972 0 -1 -1
2244 250 3 -0.206 1.1606817880885414 6.006703980383113 36.4241072072456 0 -1 -1