LAMMPS data file via write_data, version 29 Sep 2021, timestep = 1000000

5831 atoms
17 atom types
5488 bonds
16 bond types
10290 angles
30 angle types
12348 dihedrals
36 dihedral types
3430 impropers
10 improper types

-1.7431617806692088 44.74316178068171 xlo xhi
-1.7431617806692088 44.74316178068171 ylo yhi
-1.7431617806692088 44.74316178068171 zlo zhi

Masses

1 12.011
2 12.011
3 12.011
4 12.011
5 12.011
6 18.998
7 18.998
8 18.998
9 18.998
10 18.998
11 18.998
12 18.998
13 18.998
14 18.998
15 18.998
16 18.998
17 18.998

Pair Coeffs # lj/cut/coul/long/omp

1 0.066 3.5
2 0.066 3.5
3 0.066 3.5
4 0.066 3.5
5 0.066 3.5
6 0.053 2.95
7 0.053 2.95
8 0.053 2.95
9 0.053 2.95
10 0.053 2.95
11 0.053 2.95
12 0.053 2.95
13 0.053 2.95
14 0.053 2.95
15 0.053 2.95
16 0.053 2.95
17 0.053 2.95

Bond Coeffs # harmonic/omp

1 268 1.529
2 268 1.529
3 268 1.529
4 268 1.529
5 367 1.332
6 367 1.332
7 367 1.332
8 367 1.332
9 367 1.332
10 367 1.332
11 367 1.332
12 367 1.332
13 367 1.332
14 367 1.332
15 367 1.332
16 367 1.332

Angle Coeffs # harmonic/omp

1 58.35 112.7
2 58.35 112.7
3 58.35 112.7
4 50 109.5
5 50 109.5
6 50 109.5
7 50 109.5
8 50 109.5
9 50 109.5
10 50 109.5
11 50 109.5
12 50 109.5
13 50 109.5
14 50 109.5
15 50 109.5
16 77 109.1
17 50 109.5
18 77 109.1
19 50 109.5
20 77 109.1
21 77 109.1
22 77 109.1
23 77 109.1
24 50 109.5
25 50 109.5
26 50 109.5
27 77 109.1
28 77 109.1
29 77 109.1
30 50 109.5

Dihedral Coeffs # opls/omp

1 1.3 -0.05 0.2 0
2 1.3 -0.05 0.2 0
3 0.3 0 0.4 0
4 0.3 0 0.4 0
5 -2.5 0 0 0
6 0.3 0 0.4 0
7 -2.5 0 0 0
8 -2.5 0 0 0
9 0.3 0 0.4 0
10 -2.5 0 0 0
11 -2.5 0 0 0
12 -2.5 0 0 0
13 0.3 0 0.4 0
14 0.3 0 0.4 0
15 0.3 0 0.4 0
16 0.3 0 0.4 0
17 -2.5 0 0 0
18 -2.5 0 0 0
19 0.3 0 0.4 0
20 -2.5 0 0 0
21 -2.5 0 0 0
22 0.3 0 0.4 0
23 -2.5 0 0 0
24 -2.5 0 0 0
25 -2.5 0 0 0
26 0.3 0 0.4 0
27 -2.5 0 0 0
28 0.3 0 0.4 0
29 -2.5 0 0 0
30 -2.5 0 0 0
31 -2.5 0 0 0
32 -2.5 0 0 0
33 -2.5 0 0 0
34 0.3 0 0.4 0
35 -2.5 0 0 0
36 0.3 0 0.4 0

Improper Coeffs # cvff/omp

1 0 -1 2
2 0 -1 2
3 0 -1 2
4 0 -1 2
5 0 -1 2
6 0 -1 2
7 0 -1 2
8 0 -1 2
9 0 -1 2
10 0 -1 2

Atoms # full

4594 271 4 0.24 -0.3100341836207583 -1.5947202598075865 1.5680507367598828 2 1 1
4602 271 12 -0.12 -1.1013876361846644 0.16455715755529665 0.19679948690563617 2 1 1
4604 271 14 -0.12 0.9110325425532178 -1.6476450266820404 0.961635417140009 2 1 1
5072 299 6 -0.12 2.0968436155098544 3.845258796643506 -0.42041553669047027 0 2 0
5074 299 8 -0.12 1.5469189678782767 2.166291214596521 0.7608311723136559 0 2 0
5075 299 9 -0.12 3.1393566020004204 3.811629606538305 2.173468640533208 0 2 0
5076 299 10 -0.12 1.2935094598620422 3.771339981835043 3.0422135072925887 0 2 0
5067 299 1 0.36 1.4008885347141364 3.5000076223605614 0.6881178428627944 0 2 0
5073 299 7 -0.12 0.10853515378690348 3.7979005566533734 0.4793950329816298 0 2 0
1359 80 16 -0.12 3.862299013336921 6.9659349443740135 9.661516564674598 2 -1 0
764 45 16 -0.12 2.4212405425254424 5.790582646507356 6.208261091788448 -1 1 3
5068 299 2 0.24 1.8990802735059031 4.235700733353118 1.955379945272127 0 2 0
4601 271 11 -0.12 0.059059184080962 0.5693540342413879 1.918518739777794 2 1 1
4593 271 3 0.24 -0.9437650249318854 -0.1567086696630009 1.4404002098958695 2 1 1
4775 281 15 -0.12 3.7903179402893983 0.5303735217134007 -0.9407614554288715 -1 0 2
1350 80 7 -0.12 2.6176682153810384 9.000458895191159 7.07767850307559 2 -1 0
5080 299 14 -0.12 0.8653995044652951 7.847219132999567 1.7053582342856364 0 2 0
5083 299 17 -0.12 -0.5278028167916979 6.671965158013028 3.699884741998161 0 2 0
5071 299 5 0.36 -0.6600412103311017 6.331637370411127 2.400055282397417 0 2 0
5081 299 15 -0.12 -1.200078735559722 5.128829653701618 2.2681189592386315 0 2 0
5082 299 16 -0.12 -1.5626332377035168 7.187711273337158 1.964509602900746 0 2 0
5078 299 12 -0.12 2.423504077410681 6.091114068725666 3.125378059208875 0 2 0
5079 299 13 -0.12 0.2789730049685495 6.312982786386663 0.2778329237607624 0 2 0
5069 299 3 0.24 1.9284661152635374 5.778073224731411 1.939152113406535 0 2 0
5070 299 4 0.24 0.6210168728984005 6.553111644963855 1.5243114186198556 0 2 0
5077 299 11 -0.12 2.9438043130752236 6.130663489326399 1.1492657712695615 0 2 0
3977 234 16 -0.12 3.584913462069217 8.725046757067254 -0.36537691404369665 1 0 -1
753 45 5 0.36 1.3889852288055342 5.461916233370886 6.936996480315588 -1 1 3
758 45 10 -0.12 2.3529663924163424 0.6686403900486939 6.7378412346984335 -1 1 3
757 45 9 -0.12 1.6415629271390506 1.3888687859418767 4.80682089787606 -1 1 3
759 45 11 -0.12 2.9456935523043857 3.3110505891878166 6.1771763869960346 -1 1 3
749 45 1 0.36 0.14889983642378501 0.8620620035084479 6.558555902269848 -1 1 3
754 45 6 -0.12 -0.8771829040715021 1.6138454122755415 6.0859321576207375 -1 1 3
761 45 13 -0.12 -0.20790931664337364 3.727130914573995 7.481770552843763 -1 1 3
756 45 8 -0.12 0.15639953296218412 -0.3952908021266246 6.024536785587349 -1 1 3
755 45 7 -0.12 0.07944602358268571 0.8020064710718675 7.902453467395305 -1 1 3
750 45 2 0.24 1.4892625701362745 1.4606535014752484 6.167404033888127 -1 1 3
751 45 3 0.24 1.8248084773976256 2.8773314783302437 6.8017323866953 -1 1 3
760 45 12 -0.12 2.1146785152076326 2.6821684949400453 8.058426459770379 -1 1 3
762 45 14 -0.12 0.2252657847784194 3.907212219284152 5.341739389230876 -1 1 3
752 45 4 0.24 0.7917117962670293 4.008433025635822 6.581998389788945 -1 1 3
763 45 15 -0.12 0.3517862629894488 6.34187673709686 6.807808957090451 -1 1 3
765 45 17 -0.12 1.751508021170271 5.415415588780326 8.227882772570316 -1 1 3
4776 281 16 -0.12 3.136116907548801 -1.393216616201674 -1.3421406643854115 -1 0 2
1349 80 6 -0.12 0.7142214247583827 9.723858656722971 7.813056421577745 2 -1 0
5588 329 12 -0.12 -1.6223456068355355 9.374166847643778 -0.9017175570690712 2 0 0
4596 271 6 -0.12 -1.4295424132642665 2.36281319844199 2.8784559184474587 2 1 1
5582 329 6 -0.12 -1.5723944779181587 6.81315976913283 -1.5572181158354819 2 0 0
1352 80 9 -0.12 2.1769931060804684 8.788931215890885 9.76690718907319 2 -1 0
4603 271 13 -0.12 -0.06107464862413958 -1.7404019211416113 2.86657760613551 2 1 1
790 47 8 -0.12 -1.0154186772210072 -0.617313006015791 12.392168915794883 0 -1 0
3398 200 15 -0.12 -0.09489920338578695 3.170540117963622 14.16648262066483 -1 1 -1
783 47 1 0.36 -1.1892436807428035 -1.4373956878389869 11.371249713359726 0 -1 0
3400 200 17 -0.12 -1.2475356724196112 3.9419252888858693 12.56102052967766 -1 1 -1
4819 284 8 -0.12 3.566733008300859 8.796830034242733 21.40447113941983 0 4 -1
3387 200 4 0.24 -1.072897889546989 5.337411455105503 14.452248486877785 -1 1 -1
788 47 6 -0.12 -0.05889096569164454 -1.4151369940761842 10.709944370353572 0 -1 0
3388 200 5 0.36 -0.37485604297698183 4.275810154690018 13.48045212180062 -1 1 -1
3139 185 11 -0.12 2.8372448092097216 1.2994224260073517 19.68485878552817 1 0 -1
3320 196 5 0.36 0.8178139122535761 8.347582213214151 17.597781743638897 0 1 0
3397 200 14 -0.12 -0.0793370988133395 6.101014364295144 15.084556468139581 -1 1 -1
3389 200 6 -0.12 -0.8355086691011422 9.171295765037167 13.530920563030403 -1 1 -1
4218 249 2 0.24 -1.3416572325954448 2.9599805130402865 21.0766231306706 0 -1 -1
3399 200 16 -0.12 0.7193696726501673 4.804054327029526 12.834492562904165 -1 1 -1
3384 200 1 0.36 -0.4326686612241786 8.212530177595823 12.69765443199232 -1 1 -1
3391 200 8 -0.12 0.680978245647401 7.676144206598393 13.17845992399793 -1 1 -1
3330 196 15 -0.12 -0.29673980991914606 8.472874964827119 16.894135510105496 0 1 0
3135 185 7 -0.12 3.857008014809878 1.8627276471305387 15.593740933636742 1 0 -1
3961 233 17 -0.12 2.901539406550495 -1.6663399118506985 21.237639948788733 -1 2 -1
3140 185 12 -0.12 2.2277902541388066 3.1429723504965583 18.7531146179233 1 0 -1
4894 288 15 -0.12 3.654288955273681 -1.3496041513818957 13.991958723931694 1 0 1
3130 185 2 0.24 2.4810099911704135 1.2554145109124135 17.367641854360603 1 0 -1
3129 185 1 0.36 2.636139191250252 1.9694460787976669 16.064711794187062 1 0 -1
3138 185 10 -0.12 1.1900011689251395 0.9985628532201967 17.662629929176973 1 0 -1
3134 185 6 -0.12 1.8984975868154128 1.4270029465451908 15.13899937903072 1 0 -1
4225 249 9 -0.12 -0.8924576771937525 2.737890543914542 19.8127597849464 0 -1 -1
3137 185 9 -0.12 2.9871081719921344 0.02365894246594613 17.439659485062442 1 0 -1
3136 185 8 -0.12 2.4771459072745348 3.3491459614515176 16.09989964700869 1 0 -1
3390 200 7 -0.12 -0.24293820116957998 8.883123703602465 11.551447075793927 -1 1 -1
3319 196 4 0.24 0.7305778741001945 7.712230403092888 18.976016147253215 0 1 0
3131 185 3 0.24 3.0459166796339536 2.0441962669145353 18.601972151047928 1 0 -1
3385 200 2 0.24 -1.5754224593135766 7.167949322169748 12.568059848894544 -1 1 -1
3332 196 17 -0.12 1.3995387558748116 9.509991850825546 17.756651405187633 0 1 0
3331 196 16 -0.12 1.7676202917088586 7.624648558120492 16.904586090687285 0 1 0
3327 196 12 -0.12 -0.530150983959329 7.243333206406764 20.90585816018458 0 1 0
3329 196 14 -0.12 1.717056290292765 8.09869575142804 19.70859163442998 0 1 0
3317 196 2 0.24 -0.8214451846343724 9.422083294334143 20.3040508859145 0 1 0
3318 196 3 0.24 -0.5319931684469201 8.002326854147775 19.823327389872425 0 1 0
3328 196 13 -0.12 0.7357908818872165 6.426654616652052 18.836993624692724 0 1 0
3326 196 11 -0.12 -1.5699308376938752 7.683989588130019 19.04118180721155 0 1 0
3392 200 9 -0.12 -1.3993769906014712 6.34499312135151 11.527081106955778 -1 1 -1
4223 249 7 -0.12 -1.6360314857181373 0.6721799245050482 21.071156304835945 0 -1 -1
2390 141 10 -0.12 3.3250087772001535 1.0745797962454844 27.182674862066335 1 2 -1
3693 218 4 0.24 -0.12529423973666076 -1.480485032998245 25.62697934521964 0 0 0
3706 218 17 -0.12 2.200344013027351 -1.3565681818849868 25.6657642509164 0 0 0
1627 96 12 -0.12 -0.014738228458395675 4.308669796495461 26.301700460628098 -1 3 0
3704 218 15 -0.12 0.9940189169138967 0.3149933830584375 24.947449508280457 0 0 0
3694 218 5 0.36 1.1303905984221874 -1.0131968476996531 24.91283393316181 0 0 0
1625 96 10 -0.12 -0.8885536820610535 6.036063388921664 27.968141282724847 -1 3 0
3321 196 6 -0.12 0.8056347504305308 9.46412473791188 21.841040673286873 0 1 0
4222 249 6 -0.12 -0.1687878061959538 1.5075179837171946 22.25058209740746 0 -1 -1
2124 125 16 -0.12 -0.6656966786973375 8.841379837533111 27.934916334373458 -1 0 1
2125 125 17 -0.12 0.3828350424960323 8.191309761801527 26.16489075196265 -1 0 1
1938 114 17 -0.12 1.402692219592365 2.3743927189479086 32.63268366535278 1 3 -1
1624 96 9 -0.12 1.2428335021003039 6.1295958210017 27.92989818531007 -1 3 0
4820 284 9 -0.12 2.457457527283439 6.422690496761317 22.12713955491722 0 4 -1
1617 96 2 0.24 0.17206146864876315 5.395580175464222 28.331975438904735 -1 3 0
2123 125 15 -0.12 -1.6110607683115772 8.915820760043188 26.135112245399238 -1 0 1
2113 125 5 0.36 -0.44211205997734493 9.061899127198497 26.70799174881428 -1 0 1
4818 284 7 -0.12 2.9310504583508674 8.821473765137927 23.48499049521809 0 4 -1
1925 114 4 0.24 3.479273037325356 3.574582439710708 32.795687193800646 1 3 -1
5575 328 16 -0.12 1.4408519517198861 7.103545154951816 32.85963095337673 -1 0 0
1619 96 4 0.24 -0.8342582631469376 2.8570744949226796 27.969338237965008 -1 3 0
5761 339 15 -0.12 2.6497145522524104 -1.4267597449000542 30.219440386381592 1 3 2
4813 284 2 0.24 3.7048375025424747 6.693203532573047 22.64612328321034 0 4 -1
1629 96 14 -0.12 -0.6485808687584089 1.885416740353673 27.066816007416502 -1 3 0
1936 114 15 -0.12 3.1672370099247216 1.2365978133290876 32.46373798434721 1 3 -1
1926 114 5 0.36 2.656493358997208 2.4070646299935907 32.160807143336235 1 3 -1
1937 114 16 -0.12 2.550823272126439 2.4723728557836004 30.84543662578111 1 3 -1
1628 96 13 -0.12 -0.5342119910795537 2.3185826057036945 29.146199906814143 -1 3 0
3703 218 14 -0.12 -1.1347662895269965 -1.3406272205626717 24.802385108030336 0 0 0
1621 96 6 -0.12 1.5038202538451244 5.228256167317434 30.31767753647387 -1 3 0
1626 96 11 -0.12 1.3500808932223436 3.4859115652865844 27.770219819400005 -1 3 0
1935 114 14 -0.12 2.8739492352988094 4.801618190781659 32.484519753356594 1 3 -1
4812 284 1 0.36 3.8243667347585424 8.2615536450743 22.61569692024118 0 4 -1
3858 227 16 -0.12 3.2518425317982 9.1743189512661 27.971756056590856 1 0 -2
1618 96 3 0.24 0.12754744674513852 4.001599765494803 27.576235466809074 -1 3 0
4217 249 1 0.36 -1.4331967868484905 1.716086908453997 21.874423372626705 0 -1 -1
1616 96 1 0.36 0.26245817912780445 5.424922199515848 29.855449703627603 -1 3 0
4226 249 10 -0.12 -0.40457497965776534 3.7620170831224415 21.602475513970937 0 -1 -1
1623 96 8 -0.12 -0.07989878516409621 6.601110731804437 30.363364804635214 -1 3 0
4821 284 10 -0.12 3.6896537658570185 6.24337613877611 23.904146365259354 0 4 -1
3705 218 16 -0.12 1.3525553162770494 -1.3323310097208414 23.62466981854546 0 0 0
1622 96 7 -0.12 -0.5422553165833304 4.579511562844782 30.39633391672395 -1 3 0
3702 218 13 -0.12 -0.3492416114505832 -0.6974925881459486 26.701817381973157 0 0 0
2622 155 4 0.24 -1.645043098012115 1.7227710166160948 35.547840301062976 1 0 -1
2634 155 16 -0.12 0.13319766043572323 3.094446866946819 36.64883608121722 1 0 -1
2635 155 17 -0.12 -0.1955889219779643 0.9197091522636522 37.12964875113683 1 0 -1
1931 114 10 -0.12 3.1453855456362074 1.5324393265397573 35.340624058937195 1 3 -1
2623 155 5 0.36 -0.7618296397488293 2.058229067203875 36.785757236340146 1 0 -1
523 31 13 -0.12 -0.21948492672494724 -0.5219994947193314 40.03199584418223 2 0 -2
2631 155 13 -0.12 -0.8584899114109348 1.261791354227768 34.56316860707634 1 0 -1
1492 88 13 -0.12 -0.5613383783681811 4.875359135621166 39.45947573579347 2 2 0
1495 88 16 -0.12 1.8026852924735517 3.5905461827126297 38.64801560920354 2 2 0
5562 328 3 0.24 1.2925681928088724 8.60620824599317 36.274659872054656 -1 0 0
5571 328 12 -0.12 2.4074856422941027 7.985358542284879 36.69078716176224 -1 0 0
1490 88 11 -0.12 0.40339170438332306 7.284223560146892 39.67637226105702 2 2 0
5572 328 13 -0.12 -0.3910107791690465 8.446479955805419 34.69211488859041 -1 0 0
5573 328 14 -0.12 0.6106681702070638 6.531198606791983 35.16552714609243 -1 0 0
5563 328 4 0.24 0.774981442633927 7.89412081255112 34.94195321150607 -1 0 0
5570 328 11 -0.12 0.43461174757274645 8.431038179345531 37.240566443961306 -1 0 0
1484 88 5 0.36 1.823986060681526 4.821739359674302 39.08199972969969 2 2 0
1494 88 15 -0.12 1.675537047129439 5.608213262260983 38.000741386032566 2 2 0
1933 114 12 -0.12 2.500563201449694 4.116119717328992 34.829251869350045 1 3 -1
5564 328 5 0.36 1.717178344115261 8.016070847769761 33.79468946981201 -1 0 0
1924 114 3 0.24 3.662888958973757 3.648120243956874 34.36325220626422 1 3 -1
5576 328 17 -0.12 3.016334418174546 7.803578199751715 34.18452408137253 -1 0 0
515 31 5 0.36 -0.692688146182967 -1.5866828611413097 42.02895094190273 2 0 -2
521 31 11 -0.12 1.4659671973935644 0.3817800389840127 41.6613385726921 2 0 -2
527 31 17 -0.12 -1.530497696132493 -1.5896536048777554 43.07118708875842 2 0 -2
520 31 10 -0.12 0.7708804629200305 2.318118200110188 43.59233549681294 2 0 -2
511 31 1 0.36 -1.486370158618143 2.169318044068607 43.27862709400874 2 0 -2
516 31 6 -0.12 -1.516078527428436 3.0077516428680493 44.286881919807115 2 0 -2
519 31 9 -0.12 -0.17017470729338458 0.3528195887315999 44.027123352011785 2 0 -2
512 31 2 0.24 -0.15786269732439395 1.415906731808987 43.204233948720685 2 0 -2
522 31 12 -0.12 0.10813472146695347 1.7730954469356737 40.918508306723794 2 0 -2
513 31 3 0.24 0.20724723534665435 0.8328561203058007 41.78149902818347 2 0 -2
5574 328 15 -0.12 1.5925036785522437 9.215319288075653 33.21881303772766 -1 0 0
2633 155 15 -0.12 -1.5748051793028848 2.434930383994601 37.75711092426525 1 0 -1
1485 88 6 -0.12 2.561718567958775 4.783663364130949 42.35455915941752 2 2 0
1482 88 3 0.24 0.5637493137170317 6.47378800823665 40.664002874418486 2 2 0
1488 88 9 -0.12 2.802621710619648 7.182704828766846 40.729229298356785 2 2 0
1480 88 1 0.36 2.140219426654859 5.951014029905946 42.781096069487845 2 2 0
1493 88 14 -0.12 0.5946391980569239 4.11639729420019 41.01931884309444 2 2 0
1487 88 8 -0.12 3.1229329079813057 6.470778929243642 43.44152697855931 2 2 0
1486 88 7 -0.12 1.1008390597052486 5.785155860935863 43.58957225141132 2 2 0
1483 88 4 0.24 0.6304025766210588 5.037190915633914 40.10957004876367 2 2 0
1489 88 10 -0.12 1.4012984954997696 8.046281248038463 41.9787277345142 2 2 0
1491 88 12 -0.12 -0.5754120118393748 6.54241068514843 41.33187223752495 2 2 0
1481 88 2 0.24 1.7947545811928272 6.86678517890278 41.52822297530679 2 2 0
1496 88 17 -0.12 3.0023532331988854 5.046332504527158 39.69370553398829 2 2 0
2628 155 10 -0.12 -0.6908521236884266 4.16885592952265 34.10507735660148 1 0 -1
514 31 4 0.24 -0.7251636001111184 -0.26150061777914435 41.29067385082892 2 0 -2
3974 234 13 -0.12 2.412763268874812 10.067631961582157 1.5022262754216593 1 0 -1
3964 234 3 0.24 4.007350737264684 11.584451256738776 1.852913805443223 1 0 -1
5689 335 11 -0.12 -1.4527370897967153 16.199469715486916 0.29827557897278023 1 -1 2
3965 234 4 0.24 3.728514684066118 10.161429853423067 1.3658902115908658 1 0 -1
3976 234 15 -0.12 3.772651504846145 10.75258701673697 -0.8553796468781181 1 0 -1
5685 335 7 -0.12 0.33096715469824267 14.326256141698575 1.6221437008550306 1 -1 2
3972 234 11 -0.12 3.192639618867406 12.47587112137268 1.146304326264798 1 0 -1
5679 335 1 0.36 -0.5635127742417134 13.377356247857453 1.3304627973393548 1 -1 2
5686 335 8 -0.12 0.06549857151012106 12.254047137585088 1.1798777267105784 1 -1 2
5688 335 10 -0.12 -0.1423215727528575 14.01067023627078 -0.7371678154241817 1 -1 2
1339 79 13 -0.12 -1.0052924156353817 16.66188953860221 8.77978523806833 3 1 -1
5680 335 2 0.24 -1.2064359559445035 13.796486072411229 0.01680383980300509 1 -1 2
1181 70 8 -0.12 3.862899708600194 19.86688730717056 -1.3066671381783768 1 0 2
1183 70 10 -0.12 1.8218675931739885 17.842734837827198 -1.3230661130088526 1 0 2
1175 70 2 0.24 3.14848939456006 17.594494420242334 -1.2719415498114701 1 0 2
4585 270 12 -0.12 0.09915699092344288 17.258542558159718 2.6874619415067533 1 0 -2
1753 104 2 0.24 3.6206886428274077 16.476161107991757 6.288601792045343 -1 0 -1
1176 70 3 0.24 3.508404768292528 17.316666192899195 0.1578544663572638 1 0 2
1184 70 11 -0.12 2.912663040320858 16.20722806661992 0.6410779989913805 1 0 2
1761 104 10 -0.12 3.739777124493198 15.842157982030784 5.087688497512255 -1 0 -1
1185 70 12 -0.12 3.0206470619503927 18.342086051148957 0.88360357122504 1 0 2
4583 270 10 -0.12 0.3866996021347944 20.036778043948818 3.1786747062324237 1 0 -2
1328 79 2 0.24 -0.7952071728451473 20.284869078111075 9.775467830746763 3 1 -1
4580 270 7 -0.12 -1.0609853881403437 19.022135375587048 1.0394397598092613 1 0 -2
1329 79 3 0.24 -0.39941260118131416 18.79625126813099 9.574355149846387 3 1 -1
4576 270 3 0.24 -0.4932173101948416 17.854319418703124 3.706758429118759 1 0 -2
4575 270 2 0.24 -0.7026683258341524 19.347751009309675 3.4336658937293443 1 0 -2
5684 335 6 -0.12 -1.4373824374820932 13.283789607946426 2.3106017638563743 1 -1 2
16 1 16 -0.12 2.051250863520253 21.193144925910012 0.4211762307616234 -1 -3 -1
3973 234 12 -0.12 3.778519099197986 11.582117513036984 3.180932389561252 1 0 -1
1345 80 2 0.24 2.581170989575691 9.953209122198052 9.246514960452389 2 -1 0
15 1 15 -0.12 0.19234819547988646 21.3023354302015 -0.7447795484082758 -1 -3 -1
1344 80 1 0.36 2.0444145125159094 9.947765513452781 7.809203322176181 2 -1 0
1330 79 4 0.24 -1.5455001496286638 17.83365113184344 9.111100563526401 3 1 -1
1351 80 8 -0.12 2.1042685276737876 11.086798032212105 7.1716812536155485 2 -1 0
1338 79 12 -0.12 0.5054276746383468 18.75283748571325 8.597420672621467 3 1 -1
4588 270 15 -0.12 -0.6867972339722734 14.97052538510043 4.454616461282312 1 0 -2
1757 104 6 -0.12 2.875764309883203 14.384541274447677 7.317711189396564 -1 0 -1
1759 104 8 -0.12 2.78324079024624 16.218510249019218 8.501223985247195 -1 0 -1
1327 79 1 0.36 -1.3483555655712327 21.04199002891996 8.565207035919022 3 1 -1
1752 104 1 0.36 2.671224727290431 15.715817887539867 7.261989939015027 -1 0 -1
1760 104 9 -0.12 3.1570002426826056 17.735550189058664 6.02392902196752 -1 0 -1
4582 270 9 -0.12 -1.205060011924959 19.921274248855838 4.540297633417561 1 0 -2
4590 270 17 -0.12 -1.1349778608851366 15.911413878673379 6.159483898586217 1 0 -2
4578 270 5 0.36 -1.5533758186490578 15.7662917899926 4.954831761821803 1 0 -2
4574 270 1 0.36 -1.5413032855649642 19.6566935753808 2.155864006540453 1 0 -2
1065 63 11 -0.12 3.779309546499068 20.376633460234572 4.855644890816266 0 0 -1
4584 270 11 -0.12 0.3837188212152267 17.74081517876197 4.750756215280136 1 0 -2
1758 104 7 -0.12 1.4718158732958642 16.04031252334834 6.8456294390888575 -1 0 -1
1333 79 7 -0.12 -0.7762283175322009 20.783655761140736 7.400906110170952 3 1 -1
5419 319 13 -0.12 0.8675276452216092 15.226475033977433 14.783147424439187 1 -1 1
5410 319 4 0.24 1.2707581040428366 16.343690530776293 15.385231502245452 1 -1 1
4920 290 7 -0.12 -0.7576166296262009 12.561150903707116 13.44012157900761 1 0 -2
3316 196 1 0.36 0.25802584441879417 10.21824151147441 20.923613095352408 0 1 0
4921 290 8 -0.12 -0.5376111062347095 13.957707224970079 11.991230229642824 1 0 -2
5423 319 17 -0.12 -0.7574149128992422 15.704497837007391 16.5468859511497 1 -1 1
3375 199 9 -0.12 3.421571145727082 20.778709234437063 19.569638666540527 2 -1 -1
3378 199 12 -0.12 0.9273779297136857 20.883593500861927 19.24578421984389 2 -1 -1
5420 319 14 -0.12 1.3349486887487358 17.316156601369403 14.46334622778265 1 -1 1
1337 79 11 -0.12 0.16503639781535884 18.265105046912343 10.648834769891698 3 1 -1
4649 274 8 -0.12 3.362436754839977 19.356742844460232 12.479775598285118 -1 0 -1
5421 319 15 -0.12 -0.8538198548500618 17.605511260579156 15.52947796108728 1 -1 1
5411 319 5 0.36 -0.016061980020932953 16.778173575361578 16.210849594285676 1 -1 1
1335 79 9 -0.12 -1.6387462434475708 20.33492863603445 10.80766261837452 3 1 -1
4914 290 1 0.36 -1.3644723558022176 13.053805112067614 12.369820251704175 1 0 -2
4648 274 7 -0.12 3.7617582322100587 18.88381857842815 14.464200463871975 -1 0 -1
1336 79 10 -0.12 0.38368791208464903 20.81906438772123 10.075898635039328 3 1 -1
1504 89 8 -0.12 -0.6492493641651147 15.141212762520667 21.398152961068153 2 0 2
1506 89 10 -0.12 -1.4001975289062663 17.854023744226502 20.666327336121938 2 0 2
5409 319 3 0.24 2.5835732231910598 16.238236091040047 16.182303813623165 1 -1 1
5412 319 6 -0.12 3.700187485486498 13.43033390710449 15.885566990393455 1 -1 1
1780 105 12 -0.12 3.3644060732723826 15.59445005073756 21.280957030070343 -2 0 1
5413 319 7 -0.12 1.5986189783437543 13.278468923316028 16.391682237621232 1 -1 1
5408 319 2 0.24 2.822819894479661 15.153036024557366 17.27063864017234 1 -1 1
3324 196 9 -0.12 -1.2305264209846796 10.00845259334524 19.216120142523494 0 1 0
1779 105 11 -0.12 2.479047176880373 13.466974756235766 21.32117638459366 -2 0 1
5414 319 8 -0.12 3.0264572896165207 12.882114795649565 17.797836549647958 1 -1 1
5407 319 1 0.36 2.8007656141735158 13.660272964078823 16.80257395728851 1 -1 1
5416 319 10 -0.12 1.8481199462532112 15.00841999382104 18.1457698055553 1 -1 1
4919 290 6 -0.12 -1.4986413711373343 12.150386969416578 11.360287183534139 1 0 -2
5422 319 16 -0.12 0.38612736049414553 17.405895332354117 17.299795520057014 1 -1 1
5417 319 11 -0.12 3.533764429286429 15.978002908946614 15.308432320379294 1 -1 1
3381 199 15 -0.12 1.5398245676438524 20.65565426100251 15.4866909592754 2 -1 -1
5418 319 12 -0.12 2.858673395965732 17.407825443324775 16.709319789667248 1 -1 1
3368 199 2 0.24 3.0111763093655712 21.02499390879562 18.31121967993205 2 -1 -1
3383 199 17 -0.12 -0.0818233441203815 20.14862317659437 16.815348517804498 2 -1 -1
3371 199 5 0.36 0.4626244963718549 21.111146516295012 16.120661744766707 2 -1 -1
5415 319 9 -0.12 4.0291972132289615 15.315891156030304 17.828792017480705 1 -1 1
3376 199 10 -0.12 2.716519707815504 19.84841665259859 17.73461099118861 2 -1 -1
3323 196 8 -0.12 1.2601495746520117 10.692971827969684 20.114943414440084 0 1 0
1353 80 10 -0.12 1.8839615732230415 10.89558048683271 9.879783121339814 2 -1 0
2122 125 14 -0.12 0.7242971635878097 10.515997230238572 25.3234961094595 -1 0 1
2112 125 4 0.24 0.05616391844882451 10.514453630732886 26.4736507361616 -1 0 1
2121 125 13 -0.12 0.9131714629281114 10.872708325605057 27.44770720777751 -1 0 1
1782 105 14 -0.12 1.7298054324197476 15.241763389912478 23.20867731919261 -2 0 1
1772 105 4 0.24 2.928066769881636 14.677959824715703 23.32293490379534 -2 0 1
2119 125 11 -0.12 -0.4065968677910565 12.778294379931664 26.17544536163269 -1 0 1
2118 125 10 -0.12 -0.9647414723292342 11.917186790352941 28.892114793358143 -1 0 1
1781 105 13 -0.12 2.7790551887582 13.589022147200827 24.063610849309534 -2 0 1
1785 105 17 -0.12 3.0848250612050263 15.622520121857011 25.268302073746273 -2 0 1
2111 125 3 0.24 -0.9924974496978957 11.701412795638989 26.54616927744967 -1 0 1
1771 105 3 0.24 3.3647945648235638 14.31815586151518 21.860463113287874 -2 0 1
1773 105 5 0.36 3.746366694935543 15.60625777108634 24.168057337481173 -2 0 1
747 44 16 -0.12 0.47040674920436865 19.37867261524599 25.24674615978516 -2 0 -1
3204 189 8 -0.12 2.676631097730473 17.00602352154353 31.73084461219227 -1 -2 0
733 44 2 0.24 3.2758358182594236 20.78247817097527 23.241206574145043 -2 0 -1
735 44 4 0.24 2.5218214241221144 20.417008999268923 25.806458987060495 -2 0 -1
3857 227 15 -0.12 3.992551314912177 10.635520320318024 26.496727692794607 1 0 -2
3197 189 1 0.36 3.2628543124197984 16.656335668409962 32.88099397592306 -1 -2 0
3440 203 6 -0.12 0.19535350136983354 20.1000673060752 29.90319726847201 -1 -2 -1
1783 105 15 -0.12 3.8385699237833357 16.893018811560403 23.765828546960066 -2 0 1
3435 203 1 0.36 -0.9295997330468179 19.395762010545624 29.709306468605394 -1 -2 -1
740 44 9 -0.12 2.7447082981393383 19.765541944272368 22.6063122710462 -2 0 -1
1507 89 11 -0.12 -1.1271572703305135 18.79000100224133 23.28438990605033 2 0 2
1508 89 12 -0.12 0.3202020991689911 17.244008592030145 22.845952540216867 2 0 2
746 44 15 -0.12 2.270268475462652 18.328072478960802 24.839587892182955 -2 0 -1
1499 89 3 0.24 -1.011725714229726 17.47159139942339 23.088996135526273 2 0 2
736 44 5 0.36 1.7259866911379749 19.10386067686017 25.72946399879672 -2 0 -1
744 44 13 -0.12 1.8844363851611392 21.20977926674074 26.663087753110805 -2 0 -1
1500 89 4 0.24 -1.4187731835493762 16.897779206384506 24.496894587331415 2 0 2
1509 89 13 -0.12 -0.44035510637552533 17.071809515921114 25.473386385387464 2 0 2
3442 203 8 -0.12 -0.6555291692057335 18.12864741346766 29.442937715678056 -1 -2 -1
748 44 17 -0.12 1.7146172321072595 18.44362975828748 26.8400834999664 -2 0 -1
3441 203 7 -0.12 -1.607675427465789 19.86165916376602 28.633018892334515 -1 -2 -1
3444 203 10 -0.12 -1.2616487938215677 18.90127542692585 31.887312189728775 -1 -2 -1
745 44 14 -0.12 3.757130767768375 20.31601146435027 26.350404231751774 -2 0 -1
1510 89 14 -0.12 -1.653139815233204 15.614455391455671 24.352405744298338 2 0 2
734 44 3 0.24 2.523299792933188 21.252839697994077 24.491658018937734 -2 0 -1
3322 196 7 -0.12 -0.2763793109951225 11.289139353592196 21.552733337627853 0 1 0
3212 189 16 -0.12 3.9444254461436543 12.988860847582753 35.76484852594947 -1 -2 0
1560 92 13 -0.12 3.6235329962598053 17.64006491213362 38.24294984423557 -1 2 -2
5565 328 6 -0.12 0.7897869201454422 12.412988102920684 36.39297939264777 -1 0 0
5569 328 10 -0.12 2.799222036004915 10.45902423911007 35.65778844427059 -1 0 0
5568 328 9 -0.12 2.062061218852584 10.440525076752312 37.53255215475962 -1 0 0
5567 328 8 -0.12 0.6119867976978057 11.435042699638187 34.55821009295863 -1 0 0
3211 189 15 -0.12 3.3859915752086405 13.513993152422671 33.69159072279784 -1 -2 0
5560 328 1 0.36 0.5469809303860587 11.143229592530608 35.87087779296057 -1 0 0
5561 328 2 0.24 1.7064251481052504 10.159746161109595 36.33841208639093 -1 0 0
437 26 12 -0.12 -0.9676024763622275 11.537109684393226 39.0534307354585 0 0 -1
5566 328 7 -0.12 -0.6218037454977079 10.730928241085337 36.20942542458444 -1 0 0
1174 70 1 0.36 3.8005716665425346 18.791204648196842 44.46464446530942 1 0 1
3203 189 7 -0.12 2.5334939721779266 15.767918090403047 33.51247170585456 -1 -2 0
4215 248 16 -0.12 -1.283718422190777 19.932029157836325 38.38823965903145 1 -2 -2
1561 92 14 -0.12 3.5027604950888858 19.78403113844216 38.07195685478202 -1 2 -2
4216 248 17 -0.12 0.48909021248107654 19.007596262107608 37.77915940815659 1 -2 -2
2990 176 15 -0.12 -0.8135773691873437 21.049370581873912 35.7033318331269 1 -2 -1
2991 176 16 -0.12 1.180842067545264 21.19927544547569 34.82121853596288 1 -2 -1
2992 176 17 -0.12 -0.5460931650232081 20.832410126989895 33.56056924750694 1 -2 -1
438 26 13 -0.12 0.016398424489559194 10.704129241964287 41.31884225951541 0 0 -1
430 26 5 0.36 -0.3918441799900383 12.442920288140781 42.675157042695766 0 0 -1
436 26 11 -0.12 0.5360344071204179 12.811796747638903 39.80469304603702 0 0 -1
429 26 4 0.24 -0.8568623859051709 11.73224030710027 41.4380061205797 0 0 -1
427 26 2 0.24 -1.5140387656596315 13.775186567298968 39.85553467217095 0 0 -1
428 26 3 0.24 -0.7167924375329895 12.470043041041105 40.06856634716537 0 0 -1
434 26 9 -0.12 -1.0424366140301267 14.750826537593092 40.613889485904124 0 0 -1
435 26 10 -0.12 -1.418980155518132 14.192927006592514 38.5698199230842 0 0 -1
442 26 17 -0.12 -1.238808646850075 13.444926110196283 42.89229164306307 0 0 -1
440 26 15 -0.12 0.8986287492993721 12.808395947170226 42.62668193774401 0 0 -1
4911 289 15 -0.12 3.1229671499909273 13.40246078770452 41.300897323485785 2 0 0
441 26 16 -0.12 -0.5769941947605273 11.673966417623056 43.77235377597576 0 0 -1
3202 189 6 -0.12 3.3369876909019096 17.76407703100867 33.631088515191436 -1 -2 0
4913 289 17 -0.12 3.7601726631328454 13.97713147634534 39.306405181519885 2 0 0
4212 248 13 -0.12 -0.9493727859725368 17.07628095169906 38.775121327036494 1 -2 -2
4204 248 5 0.36 -0.2766813927085916 19.286404368190784 38.87536894924523 1 -2 -2
4214 248 15 -0.12 0.36300245424347444 20.117439732906604 39.692913357947255 1 -2 -2
4203 248 4 0.24 -0.7246578780314978 18.029940170773784 39.63723543072389 1 -2 -2