LAMMPS data file via write_data, version 29 Aug 2024, timestep = 1000000, units = real

5831 atoms
17 atom types
5488 bonds
16 bond types
10290 angles
30 angle types
12348 dihedrals
36 dihedral types

0.8636246918179253 42.22637530817832 xlo xhi
0.8636246918179253 42.22637530817832 ylo yhi
0.8636246918179253 42.22637530817832 zlo zhi

Masses

1 12.011
2 12.011
3 12.011
4 12.011
5 12.011
6 35.45
7 1.008
8 1.008
9 1.008
10 1.008
11 1.008
12 1.008
13 1.008
14 1.008
15 1.008
16 1.008
17 1.008

Pair Coeffs # lj/cut/coul/long

1 0.066 3.5
2 0.066 3.5
3 0.066 3.5
4 0.066 3.5
5 0.066 3.5
6 0.3 3.4
7 0.03 2.5
8 0.03 2.5
9 0.03 2.5
10 0.03 2.5
11 0.03 2.5
12 0.03 2.5
13 0.03 2.5
14 0.03 2.5
15 0.03 2.5
16 0.03 2.5
17 0.03 2.5

Bond Coeffs # harmonic

1 268 1.529
2 268 1.529
3 268 1.529
4 268 1.529
5 245 1.781
6 340 1.09
7 340 1.09
8 340 1.09
9 340 1.09
10 340 1.09
11 340 1.09
12 340 1.09
13 340 1.09
14 340 1.09
15 340 1.09
16 340 1.09

Angle Coeffs # harmonic

1 58.35 112.7
2 58.35 112.7
3 58.35 112.7
4 69 109.8
5 37.5 110.7
6 37.5 110.7
7 37.5 110.7
8 37.5 110.7
9 37.5 110.7
10 37.5 110.7
11 37.5 110.7
12 37.5 110.7
13 37.5 110.7
14 37.5 110.7
15 37.5 110.7
16 37.5 110.7
17 33 107.8
18 33 107.8
19 51 107.6
20 33 107.8
21 37.5 110.7
22 33 107.8
23 37.5 110.7
24 33 107.8
25 51 107.6
26 33 107.8
27 37.5 110.7
28 33 107.8
29 37.5 110.7
30 37.5 110.7

Dihedral Coeffs # opls

1 1.3 -0.05 0.2 0
2 1.3 -0.05 0.2 0
3 0 0 0.4 0
4 0 0 0.3 0
5 0 0 0.3 0
6 0 0 0.3 0
7 0 0 0.3 0
8 0 0 0.3 0
9 0 0 0.3 0
10 0 0 0.3 0
11 0 0 0.3 0
12 0 0 0.3 0
13 0 0 0.3 0
14 0 0 0.3 0
15 0 0 0.3 0
16 0 0 0.3 0
17 0 0 0.3 0
18 0 0 0.3 0
19 0 0 0.3 0
20 0 0 0.3 0
21 0 0 0.3 0
22 0 0 0.3 0
23 0 0 0.3 0
24 0 0 0.3 0
25 0 0 0.3 0
26 0 0 0.3 0
27 0 0 0.3 0
28 0 0 0.3 0
29 0 0 0.3 0
30 0 0 0.3 0
31 0 0 0.3 0
32 0 0 0.4 0
33 0 0 0.3 0
34 0 0 0.3 0
35 0 0 0.3 0
36 0 0 0.4 0

Atoms # full

2152 127 10 0.06 7.312598360954922 2.461691131488065 5.141373704200638 2 2 0
3819 225 11 0.06 7.135003387008389 3.518504904057145 8.392015811881611 -2 2 -1
4244 250 11 0.06 2.568057599004333 11.1651390050977 10.385791525451376 -1 0 1
2143 127 1 -0.18 4.946342646747556 2.474255508160608 5.115190672463667 2 2 0
1962 116 7 0.06 1.349510168186399 5.694632193237793 10.332588093040632 1 2 0
2149 127 7 0.06 4.971801121989586 3.2414689748998375 4.449471457920918 2 2 0
5740 338 11 0.06 1.7112699442686135 1.7413053886012584 6.010373601090721 2 2 2
2144 127 2 -0.12 6.364925892412222 1.8562665943694947 5.095440883813627 2 2 0
2150 127 8 0.06 4.764294627144125 2.76007782714116 6.13130804463878 2 2 0
4097 241 17 0.103 3.827999706905791 11.577406230581085 2.9545896996748646 1 1 -1
2153 127 11 0.06 6.491894772200827 1.5737577857864955 4.066110681842559 2 2 0
2151 127 9 0.06 4.138496754573655 1.7723288526261303 4.7965278929578075 2 2 0
5143 303 9 0.06 4.177657755719537 14.427655476561831 6.468570309576353 0 0 1
4094 241 14 0.06 4.542666940683745 13.5647443687674 1.724831442437774 1 1 -1
4015 237 3 -0.12 8.466403120334892 2.993860696196795 0.9368726758083008 0 2 1
3821 225 13 0.06 7.975164749939471 4.515589793221669 10.672860509897848 -2 2 -1
3817 225 9 0.06 9.555258794021517 2.156752297302951 8.41827189006203 -2 2 -1
5813 342 16 0.103 10.880188245344955 1.8033423305548986 5.344082851198156 2 2 0
3818 225 10 0.06 7.290800052976454 1.948862124862948 9.214783668578056 -2 2 -1
3811 225 3 -0.12 7.368600191987737 3.6424811030172415 10.50936369859934 -2 2 -1
3810 225 2 -0.12 7.681591888784099 2.9616384020440334 9.145572855372766 -2 2 -1
3815 225 7 0.06 9.792417001996611 3.1607492806678463 9.78776782493815 -2 2 -1
2045 121 5 -0.006 11.181719907800112 5.815142715931377 5.235259653623063 2 0 -2
2050 121 10 0.06 10.798833846855494 9.477625893528078 3.713006874809735 2 0 -2
2696 159 10 0.06 1.1208824302782165 11.84407796578221 5.70870928249499 0 0 0
4096 241 16 0.103 3.4953741750208 11.406753276353887 1.3103365218526462 1 1 -1
3809 225 1 -0.18 9.170377548655521 3.0503837514768586 8.884283836905496 -2 2 -1
4249 250 16 0.103 2.9585963968338302 6.737322969441169 9.046867276650017 -1 0 1
5731 338 2 -0.12 0.9163767087260755 2.4637940187642027 5.95296527889419 2 2 2
4056 239 10 0.06 2.771680887062761 1.059660275071682 2.267643368331248 3 1 1
4239 250 6 -0.2 3.475007288785251 7.374459313393226 6.794491138583437 -1 0 1
4245 250 12 0.06 4.362650034378692 10.113859468150352 9.110990688412489 -1 0 1
1403 83 9 0.06 1.9424642364679559 3.722522438923311 1.2681853415372228 2 0 -1
4236 250 3 -0.12 3.3771523745428875 10.175740246632834 8.684802357942356 -1 0 1
5736 338 7 0.06 2.141862003964466 3.6085037280456342 7.3635391749448385 2 2 2
3816 225 8 0.06 9.309615530534026 3.8648488697782017 8.199503279461293 -2 2 -1
4247 250 14 0.06 1.490878682706753 8.895259418067853 8.737327569346348 -1 0 1
2046 121 6 -0.2 10.322660646631451 4.943568665602861 3.910873884314567 2 0 -2
1406 83 12 0.06 0.9395932477532375 5.8156967173365475 2.002044557898463 2 0 -1
30 2 13 0.06 9.249261307504101 7.264720817799446 10.406375001591202 1 -3 2
4021 237 9 0.06 6.675740839106322 4.266364493771244 2.833191583548002 0 2 1
4019 237 7 0.06 6.089308887084709 5.279643830109622 1.5577469514259477 0 2 1
230 14 9 0.06 8.535753562417467 13.88890253378396 8.893872301750541 2 1 0
233 14 12 0.06 5.238956367839394 14.329595477104679 10.821533684055224 2 1 0
3820 225 12 0.06 6.2959979385749785 3.896526944433335 10.45916407923815 -2 2 -1
5730 338 1 -0.18 1.5889058452471043 3.720598950619637 6.517029061505535 2 2 2
3154 186 9 0.06 7.960911527600848 11.658150887860431 5.109212839615423 -2 2 -1
2056 121 16 0.103 10.71458641969669 5.480247309402933 6.201994768099105 2 0 -2
5738 338 9 0.06 2.1428853965035595 4.104526433427302 5.633688280183551 2 2 2
4020 237 8 0.06 7.6857864769881825 5.549551041643908 2.0911815464211774 0 2 1
2054 121 14 0.06 10.002691867272532 7.420493620224533 4.672024687167142 2 0 -2
3155 186 10 0.06 10.22010491887917 12.725288048701765 4.910848546431084 -2 2 -1
1397 83 3 -0.12 1.5857229455061517 6.405607356210537 1.3231535211361247 2 0 -1
4235 250 2 -0.12 2.80335821061896 11.437697982391946 9.281781610648345 -1 0 1
19 2 2 -0.12 8.972692902433957 9.271696849205686 9.728649456238788 1 -3 2
4024 237 12 0.06 8.411906190461448 2.4062769953657024 1.8119458556499002 0 2 1
4025 237 13 0.06 9.2879654166983 3.689357318612429 1.1935209954278536 0 2 1
1408 83 14 0.06 2.587126143167508 8.28710441196024 1.4673351390302614 2 0 -1
229 14 8 0.06 8.389477035214458 13.727670627750097 10.690351692453774 2 1 0
27 2 10 0.06 7.955378992064399 9.322113394777736 10.248552559899247 1 -3 2
228 14 7 0.06 7.173630155569394 12.990157584637204 9.565397276312998 2 1 0
1409 83 15 0.06 1.825461799563907 7.814154390041278 2.9274494169670073 2 0 -1
29 2 12 0.06 9.33746758738818 7.325390727296475 8.71401443353619 1 -3 2
20 2 3 -0.12 9.655396044568402 7.894714430874469 9.596601005584255 1 -3 2
2155 127 13 0.06 6.14803622280801 0.955933486433586 7.081878528228793 2 2 0
222 14 1 -0.18 7.859739422786685 13.890052859637887 9.741446839060377 2 1 0
4234 250 1 -0.18 3.763642685558016 12.598729694916413 9.151761265638324 -1 0 1
4238 250 5 -0.006 3.374579045592211 7.599577253373009 8.57906154914886 -1 0 1
28 2 11 0.06 9.55035667048976 9.918938713381955 10.36277035911617 1 -3 2
4903 289 7 0.06 1.8267797792377212 14.435578222266564 9.358856284990818 -1 0 0
4250 250 17 0.103 4.384461658681415 7.684742272680018 8.929444218972428 -1 0 1
3146 186 1 -0.18 8.216750654126464 12.747721523530164 5.434808163249358 -2 2 -1
2044 121 4 -0.12 10.990341996345169 7.289015369433614 5.143855053630567 2 0 -2
4243 250 10 0.06 1.9289232068985316 11.66453152800964 8.735209902345513 -1 0 1
2975 175 17 0.103 11.145527118030135 0.9899644099998317 9.283496606872674 1 1 0
4084 241 4 -0.12 5.222808377472172 12.74783115779338 1.7798077872988114 1 1 -1
3148 186 3 -0.12 10.01024414031395 14.506660047673298 6.06149188004017 -2 2 -1
4402 259 16 0.103 2.203213018241689 1.4322418256615417 9.397514507286473 1 0 1
1396 83 2 -0.12 2.900326180787276 5.616780550961002 1.4027503795045324 2 0 -1
4240 250 7 0.06 3.6479915857366905 13.284190689501097 10.016636196426987 -1 0 1
4013 237 1 -0.18 6.948099378306091 4.781392055780108 1.9095701813385004 0 2 1
4237 250 4 -0.12 2.5659031451761836 8.867158503239065 9.036410704103544 -1 0 1
4248 250 15 0.06 2.4701343577673605 8.882674952337497 10.142072739658838 -1 0 1
1405 83 11 0.06 3.251725176335965 5.555275061673409 2.426012094738252 2 0 -1
3152 186 7 0.06 7.901256725110042 13.44141634620135 4.641522092431401 -2 2 -1
3153 186 8 0.06 7.553764606352234 12.820763413099693 6.332459839635211 -2 2 -1
4085 241 5 -0.006 4.311962042148556 11.517124840934267 1.9965163765612512 1 1 -1
24 2 7 0.06 8.645948884669371 11.105384753957738 8.675170995960123 1 -3 2
4241 250 8 0.06 3.633069469267066 13.305117973069821 8.286413028615858 -1 0 1
1398 83 4 -0.12 1.6497953863871322 7.849700876371557 1.8401917659403044 2 0 -1
5812 342 15 0.06 10.9059993593593 2.517807516518325 3.064623495817651 2 2 0
18 2 1 -0.18 8.864361545694674 10.052164603924314 8.43711043912942 1 -3 2
4246 250 13 0.06 3.4796869320196433 10.293345280881582 7.641383093034479 -1 0 1
4086 241 6 -0.2 5.258016948652623 10.023702621989226 1.7697759363313326 1 1 -1
3156 186 11 0.06 9.86448823713455 12.368333671885209 6.632922531316861 -2 2 -1
3147 186 2 -0.12 9.657088966436897 13.060545119056968 5.790610112778099 -2 2 -1
4095 241 15 0.06 5.846497984297461 12.934902444851929 2.6362537386784464 1 1 -1
26 2 9 0.06 9.822857639420283 10.001731702626953 7.95358196001426 1 -3 2
4242 250 9 0.06 4.792730385461388 12.328446983852867 9.019530485661145 -1 0 1
25 2 8 0.06 8.192411230617811 9.816484788722489 7.661204063840982 1 -3 2
21 2 4 -0.12 11.16516631114191 7.937521263325994 9.626601233962285 1 -3 2
5464 322 7 0.06 10.946435918785685 11.86272443887943 0.9230537816012259 4 -1 1
2055 121 15 0.06 11.080809605669018 7.571514184421615 6.207598611543432 2 0 -2
1401 83 7 0.06 3.595017712983521 3.5221844365376493 0.9369364637978677 2 0 -1
5737 338 8 0.06 0.9454941044834366 4.582289008094024 6.680639932020154 2 2 2
5165 304 14 0.06 6.872913524878389 6.944994098322005 14.891644360800637 2 2 0
5156 304 5 -0.006 7.342981862786784 5.339428338274682 16.27588441816821 2 2 0
5157 304 6 -0.2 9.068156135452984 5.465885288688839 16.39627218908538 2 2 0
5168 304 17 0.103 6.975704316594779 5.08354330360397 17.222663120314067 2 2 0
5155 304 4 -0.12 6.633490845884419 6.657354301782891 15.900335169034095 2 2 0
5166 304 15 0.06 5.573738333198218 6.527182264033882 15.901094334367633 2 2 0
5154 304 3 -0.12 6.8959872405757014 7.857713567472922 16.817096096602214 2 2 0
5163 304 12 0.06 6.748031937004312 7.571439897225267 17.833082256674967 2 2 0
5167 304 16 0.103 7.232911943850199 4.540485641968758 15.491403829405659 2 2 0
4508 266 3 -0.12 9.413922920372448 10.999424564316591 13.574163208347768 0 1 1
1489 88 10 0.06 1.0253246234578797 10.29874571503778 17.720309601433307 0 -1 1
1670 99 4 -0.12 3.6404453981764644 6.247290761321858 13.449142544067064 -1 0 -2
3913 231 3 -0.12 10.644983286628587 1.8971937046808955 20.672560929950585 -2 -2 0
1680 99 14 0.06 4.645636124159147 5.919765282839224 13.72742159228466 -1 0 -2
3824 225 16 0.103 7.191946803751505 4.3169389240242495 13.294070261394978 -2 2 -1
1669 99 3 -0.12 3.603210258824069 7.754968394104915 13.044968626408421 -1 0 -2
3814 225 6 -0.2 4.965880937927043 3.16790865635032 12.829231254966432 -2 2 -1
3813 225 5 -0.006 6.768813809600009 3.2854641549188686 13.030406240625439 -2 2 -1
3812 225 4 -0.12 7.403076271746432 2.7127332480046347 11.783054747797252 -2 2 -1
497 30 4 -0.12 9.445303391526132 13.790194163065564 20.574845316136024 -1 0 0
3825 225 17 0.103 7.103605552774775 2.5745942050171147 13.758902294998196 -2 2 -1
4512 266 7 0.06 6.592778437094553 11.847663682981494 13.80859952294036 0 1 1
986 58 17 0.103 2.785793880002166 2.8265922257986267 18.400429515070265 -1 1 -1
3922 231 12 0.06 10.276483813198022 2.415354745458977 19.79149041704382 -2 -2 0
506 30 13 0.06 10.804957852179465 11.989005696754061 20.670207632227104 -1 0 0
985 58 16 0.103 3.8983335244770725 3.2997472452966985 19.739386961610016 -1 1 -1
3286 194 5 -0.006 1.36599344745492 6.954282133565262 18.809081937913668 1 -1 0
3298 194 17 0.103 1.302103307612458 7.859972091613284 18.199321866461894 1 -1 0
973 58 4 -0.12 4.055250441579819 1.2689364772734844 19.168643440631143 -1 1 -1
1676 99 10 0.06 5.8167708947659325 7.696444685864059 12.906220952778332 -1 0 -2
3297 194 16 0.103 1.2967036852878775 7.291292653085142 19.887266454037043 1 -1 0
3923 231 13 0.06 10.213963469589357 0.9283285532987858 20.723837706102884 -2 -2 0
1668 99 2 -0.12 4.9620462740171485 7.989484100806926 12.359293815627973 -1 0 -2
1672 99 6 -0.2 0.8739336164703982 6.236219992058392 14.185099226493517 -1 0 -2
1681 99 15 0.06 3.3518242608707536 5.595419553516532 12.634355548167996 -1 0 -2
4518 266 13 0.06 9.500062680389902 11.158092916318783 12.420398922079158 0 1 1
975 58 6 -0.2 5.074652573535661 3.3499046401908243 17.70665928582171 -1 1 -1
3823 225 15 0.06 7.036577975527474 1.7190404980614655 11.539768941927305 -2 2 -1
2270 134 9 0.06 6.944494363118042 5.923570119991734 19.88626081701077 2 0 0
499 30 6 -0.2 10.155749646725603 13.449261824755482 17.966241400241884 -1 0 0
1678 99 12 0.06 2.759754058468625 8.03994431955402 12.377259298053858 -1 0 -2
2263 134 2 -0.12 5.892004499190986 7.198644847478165 21.36942532973165 2 0 0
1674 99 8 0.06 4.9655878968119955 10.088480282846529 12.948532502055317 -1 0 -2
974 58 5 -0.006 3.7455044236477244 2.701512523830239 18.85117467605346 -1 1 -1
1671 99 5 -0.006 2.5996067376619756 5.969835759954706 14.619580106286978 -1 0 -2
3287 194 6 -0.2 2.973564096489054 6.237519963769329 18.78824104961908 1 -1 0
1682 99 16 0.103 2.901318732801452 6.593952795541688 15.443050736422888 -1 0 -2
498 30 5 -0.006 10.325740888979151 14.470478517024057 19.413497529069215 -1 0 0
982 58 13 0.06 4.899726534839829 1.3275567338684153 21.10723645000996 -1 1 -1
4517 266 12 0.06 10.368785298624928 11.080517159993693 14.09472825359785 0 1 1
4511 266 6 -0.2 9.393340919974586 6.943509594036987 13.289965945896094 0 1 1
1683 99 17 0.103 2.704077666383995 4.94771517100839 15.012922148977124 -1 0 -2
2262 134 1 -0.18 7.010661278338717 6.231777372245074 20.92007277041691 2 0 0
4520 266 15 0.06 8.660637622443637 9.294613175079824 14.863894050813135 0 1 1
1667 99 1 -0.18 4.972984280684247 9.467293275273617 12.015858076925097 -1 0 -2
1679 99 13 0.06 3.4974889758825083 8.464164707199007 13.866531584754615 -1 0 -2
2277 134 16 0.103 6.014062238789953 11.506552739202585 20.473181416495322 2 0 0
5152 304 1 -0.18 5.942854889312566 10.376261099437242 17.242153614192173 2 2 0
3987 235 9 0.06 1.1370861473704006 2.66659566511931 14.654951487836616 -1 1 0
3754 221 14 0.06 1.4468225110362634 10.209666518926602 12.374267771869182 1 0 0
4507 266 2 -0.12 8.679990669505388 12.146666651908244 14.304940519427031 0 1 1
3745 221 5 -0.006 1.2418114657977275 11.966872387368815 13.595671692570283 1 0 0
4515 266 10 0.06 8.429879368845903 11.834701745248104 15.383487144286516 0 1 1
1170 69 14 0.06 9.888991872974195 7.573102215002096 19.20802559765524 0 3 -3
496 30 3 -0.12 9.771517362797995 12.272932599035114 20.816219740275404 -1 0 0
1677 99 11 0.06 5.134989400056171 7.413484683564863 11.443786959348806 -1 0 -2
508 30 15 0.06 8.412438441917885 13.664412843320676 20.27086003604573 -1 0 0
4906 289 10 0.06 0.8907066064440251 14.144144538755652 11.601334682104852 -1 0 0
2964 175 6 -0.2 10.996446459247506 1.360166800662344 11.588868501783715 1 1 0
1673 99 7 0.06 5.799567656139006 9.693589096385374 11.407099842656507 -1 0 -2
3757 221 17 0.103 1.671865187045738 12.717142454770755 12.907538993840042 1 0 0
4477 264 6 -0.2 1.6163820710001264 3.2807666147954007 20.974188684835468 1 1 0
1169 69 13 0.06 10.97428481021625 9.503661732466904 20.25598394779952 0 3 -3
227 14 6 -0.2 4.19094157601228 14.276958564441703 13.852750239735112 2 1 0
4513 266 8 0.06 7.3195543131465906 12.646637125800956 12.630274188523591 0 1 1
3822 225 14 0.06 8.428455317802976 2.50030338937686 12.0158803649014 -2 2 -1
2273 134 12 0.06 5.1217694649123375 8.580538865159085 19.7648340197608 2 0 0
4506 266 1 -0.18 7.333090195293744 12.597390667587147 13.730651515510434 0 1 1
1675 99 9 0.06 4.045368652879857 9.69576084113286 11.476078347813685 -1 0 -2
4514 266 9 0.06 6.971778159571757 13.54745361161773 14.124302067766317 0 1 1
4522 266 17 0.103 10.219876697241805 8.783562977348122 12.203099729721487 0 1 1
4641 273 17 0.103 6.293186930967281 14.086666575249607 17.331755425447337 1 1 0
5164 304 13 0.06 7.925393781976415 8.107173413761881 16.77930090494462 2 2 0
2267 134 6 -0.2 3.6686629245391935 10.948524653926988 20.037575578513184 2 0 0
4510 266 5 -0.006 10.00560249875987 8.62283223233689 13.24249689347471 0 1 1
4516 266 11 0.06 9.314286401592119 13.023525729170501 14.474061548420114 0 1 1
2274 134 13 0.06 6.800390941194867 8.789829305193717 20.16903270573377 2 0 0
1484 88 5 -0.006 1.142648769512382 13.152424515824302 17.30444414238695 0 -1 1
5160 304 9 0.06 6.972734523744581 10.710293044107347 17.33437285469397 2 2 0
505 30 12 0.06 9.325006042577746 11.732344417884327 20.032595771199308 -1 0 0
1162 69 6 -0.2 10.551805899149374 9.891022895966994 17.425012970926332 0 3 -3
2269 134 8 0.06 8.003743861077604 6.66856214400793 21.003464978390795 2 0 0
1495 88 16 0.103 1.4287436131170566 12.146690150308666 16.868019496555366 0 -1 1
5153 304 2 -0.12 6.032787760535038 9.075033531313911 16.386296615793086 2 2 0
5161 304 10 0.06 6.315209048297571 9.456909876998036 15.476146242993755 2 2 0
5162 304 11 0.06 4.975236591375466 8.730171427081013 16.188516613149417 2 2 0
2266 134 5 -0.006 5.139658202959417 11.02809942527905 20.979715388977596 2 0 0
4521 266 16 0.103 10.935381242495398 8.70590560982303 13.820356689270085 0 1 1
2268 134 7 0.06 6.745702096857944 5.258165015834873 21.35827860566188 2 0 0
4630 273 6 -0.2 4.397676333580591 14.458087013433383 18.83301006704489 1 1 0
5159 304 8 0.06 5.380683090065341 11.150698836185668 16.691181129517982 2 2 0
3746 221 6 -0.2 2.6449866326727403 11.396005349097392 14.603818849799012 1 0 0
1496 88 17 0.103 2.0478424071132126 13.499880935929902 17.860632027819427 0 -1 1
4519 266 14 0.06 7.956266910014036 9.48212531306397 13.252822589517173 0 1 1
4509 266 4 -0.12 8.86589152038298 9.518827163941664 13.785605897200952 0 1 1
2264 134 3 -0.12 5.866265557584261 8.56033199416322 20.60942309650642 2 0 0
981 58 12 0.06 5.9875464219795145 1.7038904460175404 19.96238723155721 -1 1 -1
5158 304 7 0.06 5.552330861544707 10.322104050771225 18.341727143354078 2 2 0
972 58 3 -0.12 5.182746751228329 0.994426940040644 20.138533934278616 -1 1 -1
4488 264 17 0.103 1.0775108402367914 1.5472138325234335 19.75903005969677 1 1 0
1160 69 4 -0.12 10.971667415765841 7.6768678344405625 18.981468143896983 0 3 -3
2272 134 11 0.06 4.892519364369109 6.7641854976811135 21.446349272573652 2 0 0
1172 69 16 0.103 11.143321748929733 7.661505896209325 16.796042592180292 0 3 -3
507 30 14 0.06 9.444465816427645 14.367671336335894 21.443095343339845 -1 0 0
4640 273 16 0.103 6.712004120313581 14.601456464962297 18.99595393670214 1 1 0
5573 328 14 0.06 6.437245484743314 0.9503378010867307 14.998755987870362 1 0 2
3919 231 9 0.06 8.485739413043213 3.2459495816951556 21.192943014950696 -2 -2 0
5569 328 10 0.06 8.566844212834244 0.9273405790107397 16.384196259285396 1 0 2
3176 187 14 0.06 6.209319959067152 3.794532697911608 31.156978938734316 -3 3 -2
3918 231 8 0.06 8.237355626994079 2.0663129905219275 22.458996970468366 -2 -2 0
3030 179 4 -0.12 8.925537631285318 6.086405883117234 26.401055702911805 3 0 1
517 31 7 0.06 7.590822379272538 2.2568098001162995 31.786261857385572 -2 2 2
3033 179 7 0.06 9.721226034153629 2.976818836365718 25.40410576804877 3 0 1
3166 187 4 -0.12 5.30440148762886 4.263908646936654 30.868426552710414 -3 3 -2
3165 187 3 -0.12 4.24413537549551 3.2588522903992008 30.34535800424764 -3 3 -2
3175 187 13 0.06 4.551429952978999 3.0330406266912524 29.278265966060005 -3 3 -2
2358 139 12 0.06 7.406818684714479 11.788400473280916 31.489895438388643 -1 3 3
3174 187 12 0.06 3.2715415385282935 3.7790901998206974 30.15129709136547 -3 3 -2
3164 187 2 -0.12 4.067018324721071 2.0172468979155393 31.176463719088964 -3 3 -2
3177 187 15 0.06 4.951981940375281 4.762222495463096 31.753840764118078 -3 3 -2
672 40 9 0.06 1.241483202595492 14.609497135002247 21.94205611173132 -1 3 -1
503 30 10 0.06 8.056018016126455 12.104741571074808 22.225368805003576 -1 0 0
569 34 8 0.06 5.896026231684172 2.2689246357788613 25.660522835147102 -1 0 -1
3041 179 15 0.06 8.97998263944028 5.819178221628144 25.36620575811575 3 0 1
3167 187 5 -0.006 5.568868706589498 5.353230488117731 29.852943934862104 -3 3 -2
5510 325 2 -0.12 9.935383089525068 14.411777679165752 28.769076873513182 0 2 1
3912 231 2 -0.12 10.324623904020033 2.586408699366589 21.97222918725098 -2 -2 0
3178 187 16 0.103 5.998224979364739 6.339796722332494 30.28015116952138 -3 3 -2
3179 187 17 0.103 4.631244383069786 5.617702531432432 29.36728492193167 -3 3 -2
3035 179 9 0.06 10.424071517724936 4.341014980299469 24.586456947378274 3 0 1
133 8 14 0.06 1.341312252688124 6.410296580303404 30.99229389497477 1 -2 -2
3168 187 6 -0.2 6.674818944704374 4.702863327151683 28.640085076569807 -3 3 -2
5475 323 1 -0.18 1.880945383751335 6.78841156071759 23.446995887044697 1 1 1
2350 139 4 -0.12 5.56814994547014 11.155074606308899 30.375017399268366 -1 3 3
562 34 1 -0.18 5.594721843243748 1.2437693628896929 25.71865149289011 -1 0 -1
3027 179 1 -0.18 10.58977347219209 3.621606607898869 25.431551923441162 3 0 1
504 30 11 0.06 9.031669476117068 10.637275180499357 21.951718041469288 -1 0 0
330 20 7 0.06 5.8250588291989285 13.846301313584092 24.97498189446852 -1 0 3
4986 294 5 -0.006 10.026039660128491 5.7630938852555165 31.566378581452142 0 0 2
4794 282 17 0.103 5.662264478612123 7.7618697428472 25.70305646198919 1 2 0
5483 323 9 0.06 1.8294970041359364 5.873803624712326 22.785177503097813 1 1 1
4998 294 17 0.103 9.859055387161353 6.267666737484552 30.61925105712428 0 0 2
4784 282 7 0.06 3.599013156822853 13.565294773207063 24.4979307060745 1 2 0
3917 231 7 0.06 8.685371156198435 3.8247912087535823 22.839550729908744 -2 -2 0
5481 323 7 0.06 2.513054397031631 7.532629194875732 22.96542696370451 1 1 1
324 20 1 -0.18 6.263225439160231 14.455549674088296 25.801865249615226 -1 0 3
495 30 2 -0.12 9.095563209373505 11.70838740633919 22.094268678156443 -1 0 0
518 31 8 0.06 8.865161594119341 2.3328941582710083 30.660440879066496 -2 2 2
3038 179 12 0.06 9.727843091015428 5.29657378080481 28.312828226036803 3 0 1
5477 323 3 -0.12 1.0504022311072128 5.470967364381452 25.23152442348319 1 1 1
5476 323 2 -0.12 2.1631420938038017 6.3513576490637105 24.870093910065055 1 1 1
511 31 1 -0.18 8.459826873455443 1.7122405767643794 31.429182360744576 -2 2 2
3039 179 13 0.06 8.74419605024778 4.243088454291736 27.32171281581678 3 0 1
5511 325 3 -0.12 10.757221821508255 14.408126386954917 27.421738504408143 0 2 1
3029 179 3 -0.12 9.498371883387891 4.992862983315926 27.35147561493171 3 0 1
5489 323 15 0.06 2.248113464080495 4.501892469478234 26.701497522537103 1 1 1
5485 323 11 0.06 3.0801143615300575 5.784173713192326 25.057695677747795 1 1 1
3031 179 5 -0.006 9.695687701639688 7.44192906754716 26.473826021390185 3 0 1
572 34 11 0.06 7.718907511962416 1.0211967534501638 26.129727420121466 -1 0 -1
4785 282 8 0.06 2.9535815001397685 13.44181684666842 25.983904606260513 1 2 0
3040 179 14 0.06 7.883404774512748 6.335378525347808 26.662082149523094 3 0 1
2348 139 2 -0.12 7.16614819815123 9.662385055143798 31.689792855064834 -1 3 3
5488 323 14 0.06 1.0702488769923735 5.5115748731097245 27.52631018042501 1 1 1
3042 179 16 0.103 10.7943234182655 7.323191607718629 26.34309207893251 3 0 1
4791 282 14 0.06 4.035952553099099 8.964924543580434 24.445025269541688 1 2 0
2278 134 17 0.103 4.82876728868662 11.676385338072597 21.82240858182837 2 0 0
5521 325 13 0.06 10.200391715207155 13.851232065323636 26.683012588316117 0 2 1
4793 282 16 0.103 6.3706230286881445 9.34990328753442 25.466082237717565 1 2 0
4782 282 5 -0.006 5.529646398051017 8.795575721324816 25.888315723669063 1 2 0
333 20 10 0.06 8.031427735414537 14.44426341794117 24.80211157227236 -1 0 3
3171 187 9 0.06 2.482006048468471 1.0397731836900923 29.983266733682633 -3 3 -2
4650 274 9 0.06 1.767488642069761 13.439694859058944 31.43355597884391 2 0 -3
3043 179 17 0.103 9.389054677847803 7.916735202605266 27.51250208534057 3 0 1
2276 134 15 0.06 4.331552823860891 9.26959814609635 22.005250848951405 2 0 0
5482 323 8 0.06 0.910530871313852 7.27755933568453 23.466497729379387 1 1 1
2356 139 10 0.06 6.332709904636566 8.922550667266156 31.678923627542034 -1 3 3
2275 134 14 0.06 6.037440470854833 9.73692809418121 22.383947928471095 2 0 0
675 40 12 0.06 0.933273819830107 12.105358924529034 23.065116213443094 -1 3 -1
2362 139 16 0.103 5.817505649349379 13.171636010478624 29.83617089661661 -1 3 3
5509 325 1 -0.18 9.501408311002203 13.06813575184965 29.189309769474704 0 2 1
2352 139 6 -0.2 3.8687013105833046 12.671058608003221 28.84758595450984 -1 3 3
5517 325 9 0.06 10.369039723913872 12.376834215184555 29.371697412592532 0 2 1
570 34 9 0.06 4.617695982081138 1.112445219448009 26.04758840096438 -1 0 -1
3028 179 2 -0.12 10.712409448386833 4.2465299063087505 26.84963963835633 3 0 1
4788 282 11 0.06 2.1066913903151403 11.098421750613772 25.830369919777056 1 2 0
5516 325 8 0.06 8.779133665232596 13.016316983237374 30.040669543800238 0 2 1
2351 139 5 -0.006 4.971122985095557 12.515404079595136 30.20917401936617 -1 3 3
5515 325 7 0.06 8.88777312222808 12.650753998452679 28.339580424567647 0 2 1
4778 282 1 -0.18 2.769857940822107 13.030304884806846 25.032939882344994 1 2 0
2271 134 10 0.06 6.29708290018823 7.302894070186441 22.354741071499742 2 0 0
5484 323 10 0.06 2.1659859393593113 7.16801965229842 25.556468696992617 1 1 1
2360 139 14 0.06 4.796603932103601 10.385131115340126 30.41351579967109 -1 3 3
4783 282 6 -0.2 5.759160562948148 8.891101729880539 27.68245155973513 1 2 0
2265 134 4 -0.12 5.312474476072788 9.657429538737217 21.57151522822363 2 0 0
3920 231 10 0.06 10.63750562821157 2.028927410093211 22.834544015190623 -2 -2 0
2363 139 17 0.103 4.462008949541861 12.862588601051389 31.09275096226547 -1 3 3
3921 231 11 0.06 10.884705550534205 3.570742251362548 21.900047403770994 -2 -2 0
3032 179 6 -0.2 9.190136269351036 8.493379386836443 25.089095803698196 3 0 1
494 30 1 -0.18 9.907924151908281 12.086611663494304 23.320456978367186 -1 0 0
267 16 12 0.06 1.120676629272292 12.279401418354315 27.88315635321514 0 -2 0
500 30 7 0.06 10.149412550270613 13.08402852794357 23.478343772955057 -1 0 0
4787 282 10 0.06 2.478599858954764 11.159818028879787 24.048744073128724 1 2 0
4780 282 3 -0.12 4.197048176664915 10.932280370951005 25.34969065236981 1 2 0
332 20 9 0.06 6.447981462192565 13.764969189735073 26.626206231867606 -1 0 3
2357 139 11 0.06 7.731619332950413 9.436904503146877 30.745959660232845 -1 3 3
4779 282 2 -0.12 2.825457368136222 11.515102498248764 25.05761041629581 1 2 0
5478 323 4 -0.12 1.260709356096592 4.840007179255909 26.619569578013696 1 1 1
4786 282 9 0.06 1.8495039906619537 13.410224033144972 24.61993792620923 1 2 0
502 30 9 0.06 9.295559675851866 11.631140228716266 24.15637663079056 -1 0 0
4792 282 15 0.06 3.3534180941287284 9.049087109474668 26.03912605797037 1 2 0
4789 282 12 0.06 4.466366211530344 11.33469685699093 26.273075346051534 1 2 0
2349 139 3 -0.12 6.536027647298133 11.102831677189373 31.621755924475938 -1 3 3
4790 282 13 0.06 4.983159207018464 11.215693459941582 24.72146139352958 1 2 0
3911 231 1 -0.18 8.873653837359942 2.9332341553389223 22.17444620443419 -2 -2 0
2361 139 15 0.06 6.057711150129033 10.841599632186538 29.50078365110092 -1 3 3
4781 282 4 -0.12 4.168374249181786 9.383643156302039 25.39983757861041 1 2 0
4649 274 8 0.06 2.296964496772161 11.789783726321087 31.848596695695946 2 0 -3
3172 187 10 0.06 4.95731742303201 1.7353635817280997 31.723519196910527 -3 3 -2
1163 69 7 0.06 11.026025951938577 9.118709677019787 22.869431838612527 0 3 -3
3037 179 11 0.06 11.014647222170588 3.609457146712336 27.640818597049012 3 0 1
4642 274 1 -0.18 1.4841452341082086 12.475256057939621 31.790149870441255 2 0 -3
501 30 8 0.06 10.953086677268452 11.688817088263292 23.40470843383408 -1 0 0
4987 294 6 -0.2 11.065025392271691 4.335007681972701 31.18857612908277 0 0 2
1166 69 10 0.06 10.375832901851886 7.318023122894172 21.573869771439295 0 3 -3
4092 241 12 0.06 6.444334969459912 11.769935635651498 41.51522719802711 1 1 -2
4989 294 8 0.06 8.267134551699243 3.889673747925195 36.26263110306335 0 0 2
4023 237 11 0.06 6.388812425541288 3.309651726625015 41.88012161170204 0 2 0
3974 234 13 0.06 10.039644992844396 7.35907791382099 38.586432601508605 0 0 0
3964 234 3 -0.12 9.696321549712005 7.201270021513153 39.63982294026654 0 0 0
3965 234 4 -0.12 10.089411742372901 5.761975250961086 39.95790595890682 0 0 0
4014 237 2 -0.12 7.286122812236458 3.9103996884718946 42.0889673513437 0 2 0
1364 81 4 -0.12 2.8713621612612275 7.735810954662252 39.206497337609505 -2 2 0
3972 234 11 0.06 7.6051816434171196 6.496681707802696 39.432521850372765 0 0 0
4993 294 12 0.06 9.408914017421008 4.447547501203816 33.9551435609206 0 0 2
1367 81 7 0.06 4.058817107232889 4.169467064549721 37.363434231231835 -2 2 0
1361 81 1 -0.18 3.1253673412934373 4.525882546813024 36.98272709472258 -2 2 0
4982 294 1 -0.18 7.549080488738195 4.651851553629072 36.02659912018148 0 0 2
4990 294 9 0.06 6.588167560711003 4.250758189375491 36.53335774910051 0 0 2
1369 81 9 0.06 2.4685500402052334 3.670705698530445 37.13787318940315 -2 2 0
1362 81 2 -0.12 2.5443361680364633 5.601365612097373 37.89707610861411 -2 2 0
1370 81 10 0.06 2.2216680707126635 5.117891376373471 38.804859852156646 -2 2 0
4027 237 15 0.06 9.095876272942931 2.7245713371728164 40.151778368373854 0 2 0
2737 161 17 0.103 4.424248362858705 14.629768503825835 40.03406852693042 2 -1 0
3975 234 14 0.06 9.343485816161607 5.216535896633988 39.34199149880563 0 0 0