LAMMPS data file via write_data, version 29 Sep 2021, timestep = 1000000

5120 atoms
10 atom types
4608 bonds
9 bond types
7168 angles
14 angle types
7680 dihedrals
15 dihedral types
2048 impropers
4 improper types

2.3577012812359173 38.64229871878209 xlo xhi
2.3577012812359173 38.64229871878209 ylo yhi
2.3577012812359173 38.64229871878209 zlo zhi

Masses

1 15.999
2 12.011
3 12.011
4 15.999
5 1.008
6 1.008
7 1.008
8 1.008
9 1.008
10 1.008

Pair Coeffs # lj/cut/coul/long/omp

1 0.17 3.07
2 0.066 3.5
3 0.066 3.5
4 0.17 3.07
5 0 0
6 0.03 2.5
7 0.03 2.5
8 0.03 2.5
9 0.03 2.5
10 0 0

Bond Coeffs # harmonic/omp

1 320 1.41
2 268 1.529
3 320 1.41
4 553 0.945
5 340 1.09
6 340 1.09
7 340 1.09
8 340 1.09
9 553 0.945

Angle Coeffs # harmonic/omp

1 50 109.5
2 50 109.5
3 55 108.5
4 35 109.5
5 35 109.5
6 37.5 110.7
7 37.5 110.7
8 55 108.5
9 35 109.5
10 33 107.8
11 37.5 110.7
12 37.5 110.7
13 35 109.5
14 33 107.8

Dihedral Coeffs # opls/omp

1 9.508 0 0 0
2 -0.35601 -0.174 0.492 0
3 -0.35601 -0.174 0.492 0
4 0 0 0.45 0
5 0 0 0.468 0
6 0 0 0.468 0
7 0 0 0.468 0
8 0 0 0.45 0
9 0 0 0.468 0
10 0 0 0.3 0
11 0 0 0.45 0
12 0 0 0.3 0
13 0 0 0.3 0
14 0 0 0.45 0
15 0 0 0.3 0

Improper Coeffs # cvff/omp

1 0 -1 2
2 0 -1 2
3 0 -1 2
4 0 -1 2

Atoms # full

4242 425 2 0.145 4.89531386432275 9.38629858480107 4.872205849657095 1 0 0
5048 505 8 0.06 3.220158947839965 7.772663086176706 2.7512460198868283 1 1 0
294 30 4 -0.7 3.1671987904215775 10.099262224794154 9.847068186407222 0 0 1
851 86 1 -0.7 5.008452557311673 4.818345975285274 9.106261114926886 0 0 0
4247 425 7 0.06 4.919182530414004 10.492620703720139 4.616653229049091 1 0 0
647 65 7 0.06 3.936871642990608 5.881131824613892 7.199470114626111 0 0 0
296 30 6 0.06 3.055855201041108 7.339373377332651 9.354349131062346 0 0 1
4245 425 5 0.435 6.191248300410645 7.9928552868209195 4.4054852469590005 1 0 0
295 30 5 0.435 4.507348511520296 5.859675934185698 10.252612377011031 0 0 1
642 65 2 0.145 2.975444212029144 5.609583743165766 6.813986712579148 0 0 0
648 65 8 0.06 3.1810279576905485 6.640466456346319 4.896416266443359 0 0 0
643 65 3 0.145 3.1889813540402683 5.620858822033885 5.300652267302584 0 0 0
293 30 3 0.145 3.4144433655345967 9.018475549727949 10.729322114080873 0 0 1
650 65 10 0.435 4.2366211083049645 3.9656257171511733 5.269814456032782 0 0 0
4243 425 3 0.145 4.446868058119902 9.13104467076823 6.325708674565719 1 0 0
1780 178 10 0.435 5.49605301076577 5.882618081714421 4.302176248061303 0 1 0
644 65 4 -0.7 4.384891701650636 4.860693237870581 4.947862419181557 0 0 0
4249 425 9 0.06 4.8533319393818894 8.195357253614958 6.63274103746574 1 0 0
855 86 5 0.435 5.207497037385996 3.919368532006541 9.387672998617743 0 0 0
1774 178 4 -0.7 6.047871024861027 6.448852393925664 3.6861388167160345 0 1 0
107 11 7 0.06 2.6423142437276828 2.7651289632730056 9.523316744035029 0 0 0
646 65 6 0.06 2.5032063491270846 4.644069705014672 7.061105663435701 0 0 0
857 86 7 0.06 6.5950409688317 4.794654320811763 7.853538123695503 0 0 0
4248 425 8 0.06 4.807660769296019 9.819436798909948 7.054345508210689 1 0 0
300 30 10 0.435 4.054848824776142 10.352718669891175 9.612246167802475 0 0 1
291 30 1 -0.7 4.125561892773671 6.610919805386102 10.79652537527809 0 0 1
4246 425 6 0.06 4.299447938277524 8.93642649291989 4.095953811665039 1 0 0
852 86 2 0.145 6.28036470723026 5.240195784663246 8.817343369439627 0 0 0
4250 425 10 0.435 2.6019589688047975 9.775596788811526 6.202242372228212 1 0 0
856 86 6 0.06 6.294446479040944 6.2767095289579435 8.528546461490938 0 0 0
292 30 2 0.145 3.8275133536011525 7.732965024457801 9.953457792173682 0 0 1
4244 425 4 -0.7 3.092232600599827 8.938001526917576 6.242548739139833 1 0 0
4241 425 1 -0.7 6.194762778100838 8.919531942288593 4.635518768891954 1 0 0
297 30 7 0.06 4.75667476425798 7.974232397649033 9.399123571201393 0 0 1
299 30 9 0.06 2.531802841689555 8.740055898489986 11.342373328490716 0 0 1
102 11 2 0.145 3.2416496040434915 2.5111483876775806 10.420456989807407 0 0 0
4041 405 1 -0.7 5.486106628550761 11.004965513094152 9.135045228906469 1 0 0
106 11 6 0.06 3.8300146480955455 3.297853663952585 10.907977385351737 0 0 0
1 1 1 -0.7 4.327957988075786 2.6040823660902754 6.286545346479587 0 0 0
814 82 4 -0.7 2.3925136343171274 11.37298026759443 5.724097947972212 0 0 0
637 64 7 0.06 3.765803894638969 3.244523705789539 2.768298780194373 0 1 1
348 35 8 0.06 6.685182157741 2.886649088094482 3.371670916595512 0 1 0
2098 210 8 0.06 6.6236024287526725 11.306218352858146 2.83074550580667 0 0 0
1778 178 8 0.06 6.823532603219345 4.836640789271529 2.636459934836278 0 1 0
5 1 5 0.435 4.785634315640332 2.384522407088367 7.092000634207398 0 0 0
4047 405 7 0.06 5.404649671423989 11.288914974481754 11.113822393011308 1 0 0
645 65 5 0.435 2.5056444432082015 7.4929836586755325 6.719434285059826 0 0 0
298 30 8 0.06 4.30445533792371 9.21995915168796 11.388798090776508 0 0 1
4684 469 4 -0.7 2.622428893427133 4.201645599778201 15.658365801952774 1 0 0
922 93 2 0.145 4.635155008138175 5.079153151330795 19.536613231803212 0 0 0
49 5 9 0.06 5.6381399861299 9.335921761581806 18.643955502254833 0 0 0
4690 469 10 0.435 2.3833470030952255 4.407650244663655 14.742878592132746 1 0 0
4511 452 1 -0.7 5.252770282206859 9.702840308330133 15.841649846316843 1 0 0
4594 460 4 -0.7 5.520742407967277 7.111322096879453 13.150135791037165 1 0 0
4515 452 5 0.435 5.400911859426941 9.885985901898097 14.864501334877325 1 0 0
50 5 10 0.435 3.603101864928293 10.091731543523075 19.57548756675278 0 0 0
4615 462 5 0.435 6.889146354509991 3.85951097231251 18.178134250519733 1 0 0
925 93 5 0.435 5.39583356143069 5.89844104229729 17.89815310573562 0 0 0
48 5 8 0.06 4.995731202945784 7.760365395854297 19.04845894323884 0 0 0
4591 460 1 -0.7 5.120078040470729 7.110624508461052 16.7357045624139 1 0 0
4598 460 8 0.06 4.16843853402657 7.8938697603078545 14.429694438925258 1 0 0
923 93 3 0.145 3.1627400288801475 5.115930203176342 19.029902335252178 0 0 0
44 5 4 -0.7 3.6675497513800233 9.178874484821744 19.331317906754972 0 0 0
4592 460 2 0.145 5.870865900911124 6.9269062462175555 15.535961554279355 1 0 0
929 93 9 0.06 2.9268302886339876 6.101017419082096 18.696740924999016 0 0 0
927 93 7 0.06 4.8575202384714 4.093291453565351 20.026094941359375 0 0 0
4512 452 2 0.145 4.522327720893813 10.80036426060553 16.249871484319826 1 0 0
840 84 10 0.435 4.350069985145537 3.1941769563168645 15.398842339116031 0 0 0
4595 460 5 0.435 5.151561094693612 8.062417337064916 16.832948680043504 1 0 0
832 84 2 0.145 6.174840069309004 2.903416724916913 13.39767070919022 0 0 0
4593 460 3 0.145 4.838284381958091 6.991993392137843 14.431199235779964 1 0 0
4600 460 10 0.435 4.88067650009868 7.065705719780448 12.385043015741969 1 0 0
921 93 1 -0.7 5.502230567788867 5.122543923834382 18.484188374150875 0 0 0
837 84 7 0.06 5.843577921654735 3.8967622810462057 13.199113159069407 0 0 0
926 93 6 0.06 4.718459264310229 5.886893669137732 20.32988009572506 0 0 0
4516 452 6 0.06 4.804165935122435 11.243737612567552 17.26625951637069 1 0 0
4599 460 9 0.06 4.2508303734726605 6.097428407844668 14.459376376744363 1 0 0
4596 460 6 0.06 6.351240518796796 5.959366121650341 15.411024012259306 1 0 0
928 93 8 0.06 2.9870949849581434 4.428486778942285 18.199439292184522 0 0 0
4517 452 7 0.06 3.522414177640711 10.415062584323815 16.42569689452439 1 0 0
4597 460 7 0.06 6.727339241760319 7.706439185548502 15.443784751508549 1 0 0
43 5 3 0.145 4.9797665177341734 8.801172751885964 19.34002156929313 0 0 0
4514 452 4 -0.7 4.646639558534213 10.99159352511771 13.865655738025717 1 0 0
924 93 4 -0.7 2.3767352681014557 4.7657043825453105 20.13285755797037 0 0 0
4520 452 10 0.435 3.7253729285356014 10.6503902773013 13.768631764352552 1 0 0
4501 451 1 -0.7 2.3973248563291394 9.592813513200483 14.054569935715113 1 0 0
834 84 4 -0.7 5.041159989785977 2.463955947918923 15.431539588269029 0 0 0
4413 442 3 0.145 3.535167347872018 5.787017970182825 25.480789435426928 1 1 0
4419 442 9 0.06 4.281790939565111 6.058115926008728 26.234225937633518 1 1 0
42 5 2 0.145 5.475492303538562 9.054042998038017 20.79567401562668 0 0 0
4414 442 4 -0.7 3.4510242101153557 4.380837729449679 25.839007690795658 1 1 0
4412 442 2 0.145 4.095884810944912 5.895283715173171 24.075759579933404 1 1 0
3908 391 8 0.06 2.61482135833753 6.932392801793277 21.639324676162826 1 0 0
1803 181 3 0.145 6.5657551890214805 2.613318841372933 24.64029402253457 0 1 0
122 13 2 0.145 6.1542175149617355 8.656245428970278 28.254795422596803 0 0 0
127 13 7 0.06 5.8426377130920635 7.749200303222807 28.792776115802177 0 0 0
123 13 3 0.145 4.862953917288061 9.09480310455757 27.52625127891496 0 0 0
46 5 6 0.06 4.886299269301638 9.79915482407705 21.274652448098166 0 0 0
129 13 9 0.06 4.552319901330899 8.25627409906762 26.82005250694571 0 0 0
130 13 10 0.435 5.624573396629279 10.083689256828299 26.160156303174052 0 0 0
793 80 3 0.145 6.469403300586929 4.577885502973659 28.833974473511066 0 0 0
126 13 6 0.06 6.31061498668371 9.408512789739152 29.09900588872806 0 0 0
4415 442 5 0.435 3.320240737755967 7.539452414417111 23.453998554510616 1 1 0
128 13 8 0.06 4.022793981126265 9.205821120570109 28.209816111917497 0 0 0
4417 442 7 0.06 3.4566034111971806 5.262123602512805 23.4230717478069 1 1 0
1808 181 8 0.06 5.80659228307215 2.4659023146552417 23.90981262998652 0 1 0
4420 442 10 0.435 4.3829541524926166 4.104536315844016 26.04715164922097 1 1 0
826 83 6 0.06 6.390115348336787 11.15693536396437 23.475291861623244 0 0 0
794 80 4 -0.7 5.313596575404185 3.7275804218103317 28.675047818618108 0 0 0
824 83 4 -0.7 6.578084420854939 9.039630987996167 24.852608081734502 0 0 0
124 13 4 -0.7 5.088837012789525 10.229263591331955 26.905518591667025 0 0 0
4416 442 6 0.06 5.104966424856919 5.400099436977536 23.991703789197054 1 1 0
1804 181 4 -0.7 6.197520746730175 3.4735327853544598 25.74652581869388 0 1 0
830 83 10 0.435 5.851763794622773 8.712130285917837 24.383602222644726 0 0 0
798 80 8 0.06 6.494733511914758 5.11063579736232 27.909294969218465 0 0 0
4411 442 1 -0.7 4.2357439217173365 7.298587028127887 23.62580660392917 1 1 0
78 8 8 0.06 3.0149381315842256 10.59366948641834 25.121659020062147 0 0 0
47 5 7 0.06 5.405442473725005 8.171683314257526 21.55802932451668 0 0 0
930 93 10 0.435 2.9126539004201883 4.217823420865431 20.682478287753305 0 0 0
4676 468 6 0.06 3.0153154178965993 3.0972284484069244 23.288618869891174 1 0 0
41 5 1 -0.7 6.801050148992463 9.361300484153713 20.787782197270154 0 0 0
4418 442 8 0.06 2.538405702507146 6.324317553539236 25.58415865868136 1 1 0
795 80 5 0.435 6.4333421655599565 2.704932344998155 28.11689336590139 0 0 0
125 13 5 0.435 6.841278402536171 8.54732414858001 26.450436973368397 0 0 0
5089 509 9 0.06 2.3758981720450265 5.064735417823524 28.46640045226602 1 1 0
800 80 10 0.435 5.2090721974702365 3.3287870662450865 29.556069289314944 0 0 0
2097 210 7 0.06 5.797358126944108 9.142174826098044 38.29997184284457 0 0 -1
134 14 4 -0.7 4.992683712077602 4.91148214386021 35.25900131642345 0 0 0
4631 464 1 -0.7 2.822954384188795 11.034376665415353 30.212711721992267 1 0 0
4307 431 7 0.06 2.466943020943354 8.853742033105195 32.87547995830995 1 0 0
4310 431 10 0.435 5.478467943254683 8.101892079040768 31.95030530809487 1 0 0
5024 503 4 -0.7 5.238861771136692 2.7652997897168734 31.11340158741627 1 1 0
139 14 9 0.06 4.555280988918424 6.894217589318124 35.04251153323412 0 0 0
132 14 2 0.145 2.7425409946178823 5.667688945634888 35.22307758982267 0 0 0
5023 503 3 0.145 4.207902742742533 3.5279424709715004 31.638981910332618 1 1 0
2092 210 2 0.145 6.462043102528334 9.671650397539986 37.613078430986874 0 0 -1
136 14 6 0.06 2.659935328936247 5.647254804229129 34.093532352746074 0 0 0
140 14 10 0.435 4.895880253841969 4.2428887222301235 35.98649045573008 0 0 0
5029 503 9 0.06 3.877449175545531 4.149019112373123 30.79546265190975 1 1 0
636 64 6 0.06 3.0865434668377767 4.582941371608721 38.30380743689517 0 1 0
632 64 2 0.145 3.340767823280207 3.509357918320675 38.11864591693355 0 1 0
799 80 9 0.06 6.288846570552858 5.293330025862822 29.639576051787415 0 0 0
133 14 3 0.145 4.2223456604921275 6.058788763326449 35.60247959949074 0 0 0
4303 431 3 0.145 4.598258621128654 9.395530715579362 32.94069392084764 1 0 0
4309 431 9 0.06 4.471635722860726 10.335061898924359 32.418014909064006 1 0 0
138 14 8 0.06 4.277775508154447 6.339131624726688 36.67414980233062 0 0 0
4302 431 2 0.145 3.4692946062719745 8.491989255275657 32.5388009637525 1 0 0
4306 431 6 0.06 3.6723552523308327 7.512005120310745 32.9929052543407 1 0 0
4308 431 8 0.06 4.634246137610328 9.516304632117828 34.015789996128035 1 0 0
5022 503 2 0.145 3.011210867470404 2.7415968150756527 32.06676013943426 1 1 0
4305 431 5 0.435 3.3895578898840313 9.062376396204783 30.760568137013145 1 0 0
2091 210 1 -0.7 5.7570524373164975 10.387271229738111 36.64945788601168 0 0 -1
4304 431 4 -0.7 5.742972316673697 8.736437137987636 32.588589245969175 1 0 0
631 64 1 -0.7 4.314388420409161 3.2996672975563506 37.155585114408524 0 1 0
155 16 5 0.435 6.5321767460746525 5.206655540428215 34.37089078612513 0 0 0
5049 505 9 0.06 2.4931739573832576 8.545391993117075 37.672249208226056 1 1 -1
137 14 7 0.06 2.4122260312693236 4.790695455978424 35.74452131882307 0 0 0
5028 503 8 0.06 4.615104467747154 4.282136206889597 32.37184997891146 1 1 0
2095 210 5 0.435 6.389875554270516 10.817534025530616 36.05404345557847 0 0 -1
4301 431 1 -0.7 3.631362171862172 8.226096902475227 31.17618864047188 1 0 0
698 70 8 0.06 6.651280371299908 2.847522702691481 33.653008775412275 0 0 0
635 64 5 0.435 4.247922612996916 2.3645927875382355 36.93386225744709 0 1 0
1306 131 6 0.06 6.39923029259114 11.357211952607978 33.820710668644 0 0 -1
3550 355 10 0.435 2.5506128103284254 19.92997582692842 8.944905213011163 1 0 0
4259 426 9 0.06 4.74643905268716 17.961599293749146 5.759794129769062 1 0 0
4868 487 8 0.06 3.4252959254209423 14.834682025236676 2.6489025000261606 1 0 1
4045 405 5 0.435 5.944539404752 11.496379354749934 8.403885014665812 1 0 0
254 26 4 -0.7 2.5745264191116606 18.204781447351344 9.082280809938384 0 0 0
2171 218 1 -0.7 6.681222109273627 12.484184936672442 7.219088874547843 0 0 0
243 25 3 0.145 6.315705854991517 15.106233857958127 5.509078891954522 0 0 0
4869 487 9 0.06 4.622011079660792 13.51716179634466 3.1163657846811925 1 0 1
4254 426 4 -0.7 5.555276341432479 19.803484430608204 6.223172228825921 1 0 0
1498 150 8 0.06 6.76498679659214 19.848610050871144 2.593571976064322 0 0 1
260 26 10 0.435 2.770956263453862 17.708918186929697 9.886031880239765 0 0 0
4048 405 8 0.06 3.7606157927254458 12.898504131626126 9.815836280946673 1 0 0
4827 483 7 0.06 6.583999456757237 17.570846079857535 10.871315313686278 1 0 0
4044 405 4 -0.7 4.785248215919994 14.001280780700592 11.110147398821596 1 0 0
4863 487 3 0.145 3.6185310823811805 13.765282102221244 2.7064410361833313 1 0 1
1491 150 1 -0.7 4.398072312138136 18.510288303386737 3.1222847037937993 0 0 1
4050 405 10 0.435 5.6866980684521415 14.23281578476981 11.418403991730697 1 0 0
249 25 9 0.06 5.469049545673716 15.620728267599763 5.96275359074553 0 0 0
813 82 3 0.145 2.881486705787448 12.269965768885832 6.736200828331321 0 0 0
4101 411 1 -0.7 2.712166445629133 16.027257049359104 11.345764536082182 1 0 0
245 25 5 0.435 6.379640796281459 15.483303293224555 2.857291089739913 0 0 0
4046 405 6 0.06 6.746712786188201 12.179699250726816 10.45149491266824 1 0 0
1495 150 5 0.435 4.871065755508305 17.736010014513806 3.3888418472773982 0 0 1
818 82 8 0.06 3.0246422185073216 11.81815652627613 7.717516949803778 0 0 0
4049 405 9 0.06 5.176091331704152 13.648149808384414 9.162505891501251 1 0 0
4253 426 3 0.145 4.905467709999394 18.666983802952906 6.592231733499938 1 0 0
4258 426 8 0.06 3.9660604493498233 19.0421127991976 6.8783064782116705 1 0 0
4256 426 6 0.06 5.5006937047950695 18.87714432303573 8.699942381231615 1 0 0
4260 426 10 0.435 4.859757767672654 20.35388587070272 5.819620131895771 1 0 0
4252 426 2 0.145 5.517986041419713 18.172101048168 7.882721950071505 1 0 0
4043 405 3 0.145 4.786798272082155 13.09118661006866 10.011660003822277 1 0 0
819 82 9 0.06 3.876681704397043 12.608513067973064 6.468512458447399 0 0 0
248 25 8 0.06 6.031974872830695 14.10537745239666 5.1598370226816375 0 0 0
4864 487 4 -0.7 2.519773791852436 13.128667444705005 3.37794095054135 1 0 1
4042 405 2 0.145 5.686773170206747 11.868088334091738 10.25735201395566 1 0 0
241 25 1 -0.7 6.1987066116921135 16.199147589405413 3.4297186295752007 0 0 0
4257 426 7 0.06 4.915957813237355 17.317500591672648 8.190074649421074 1 0 0
1520 152 10 0.435 2.637489071335108 19.304127240750887 3.4979480646249286 0 0 1
4870 487 10 0.435 2.8067677087967553 12.262032927857415 3.1792192810127986 1 0 1
4251 426 1 -0.7 6.860149159273476 17.786288206124286 7.509902791965084 1 0 0
816 82 6 0.06 2.3942161332829275 14.067154689894247 7.625340101783826 0 0 0
2175 218 5 0.435 6.890631302300305 13.437510787082333 7.182038751951547 0 0 0
4280 428 10 0.435 6.635962291853319 20.129484241392273 18.60032017232801 1 0 0
3490 349 10 0.435 5.609951162373562 14.955719726184135 17.8049408714303 1 0 0
3953 396 3 0.145 3.233734425794543 18.069896309486996 18.577255305385094 1 0 0
3956 396 6 0.06 2.9573871855701825 16.293474807269302 17.423001486824383 1 0 0
908 91 8 0.06 4.290283725160076 17.43540159170879 15.63409789946941 0 0 0
3959 396 9 0.06 3.837608374154161 17.481903406131217 19.300339921962788 1 0 0
3484 349 4 -0.7 5.971488045202511 15.751978830114469 17.28401377365601 1 0 0
905 91 5 0.435 5.4120995159916845 19.832734921345814 13.611812000797116 0 0 0
904 91 4 -0.7 3.9821915287572636 19.31340464955208 15.153791679765531 0 0 0
998 100 8 0.06 5.458313131384173 12.151220101906178 19.773457222063392 0 0 0
901 91 1 -0.7 6.220805662814902 19.350371684903337 13.714700121635019 0 0 0
4518 452 8 0.06 5.570054714925629 12.492308555031139 15.243124517400725 1 0 0
909 91 9 0.06 4.116980801263512 17.731070833376517 13.874548485721082 0 0 0
4513 452 3 0.145 4.722590681245083 11.798934122611819 15.057686227016074 1 0 0
994 100 4 -0.7 5.1269216868427065 13.924067902771132 18.94102461882949 0 0 0
902 91 2 0.145 6.0629284939993 18.273443425872774 14.642707582152246 0 0 0
3958 396 8 0.06 3.994270303365407 18.668493940679966 17.960031623240162 1 0 0
1000 100 10 0.435 4.347494611745624 14.092269879859662 19.45722130918764 0 0 0
3489 349 9 0.06 6.8897853476122375 16.955591461853793 18.935712672860216 1 0 0
51 6 1 -0.7 3.058074929435837 11.820219100278413 20.382745261472063 0 0 0
910 91 10 0.435 3.354099747241964 19.282295007243377 15.811404264795975 0 0 0
3954 396 4 -0.7 2.369659250679352 18.904063268072594 19.411968020872223 1 0 0
907 91 7 0.06 6.378294794163086 17.308199328634664 14.263772122371181 0 0 0
4109 411 9 0.06 2.702472507454875 15.135571103335323 13.741615205075835 1 0 0
4519 452 9 0.06 3.83149929284339 12.479592134554403 15.090448761963385 1 0 0
903 91 3 0.145 4.540427219712349 18.045974355299656 14.828193648257034 0 0 0
906 91 6 0.06 6.43006680978859 18.54773719509266 15.63412155140835 0 0 0
993 100 3 0.145 5.869514203471317 13.151720408185515 19.817625201965495 0 0 0
4825 483 5 0.435 6.6853508971951925 19.445205247829104 12.096781992715373 1 0 0
3952 396 2 0.145 2.3883346950700854 17.107032390106934 17.739867116123555 1 0 0
4105 411 5 0.435 3.534511353954167 15.50874052925483 11.49071778822504 1 0 0
75 8 5 0.435 3.8638955005651394 12.869448914217156 23.128203868659373 0 0 0
995 100 5 0.435 4.170394951231158 14.6956721345199 21.771105261971677 0 0 0
4213 422 3 0.145 4.420462774890471 19.854593655569374 22.15277019688102 1 0 0
4284 429 4 -0.7 5.1988832965087965 16.29159327334398 25.945289137498193 1 0 0
4286 429 6 0.06 2.8338793555017063 16.02471391658213 24.794855052978175 1 0 0
991 100 1 -0.7 4.378906847296104 13.761555498323233 21.59711811731932 0 0 0
373 38 3 0.145 5.800403777990741 12.572110345772517 29.308457262507794 0 0 0
996 100 6 0.06 6.182006316247778 13.122197905713696 21.90999416950136 0 0 0
4290 429 10 0.435 4.651708674961501 15.745837894965142 26.52368531350366 1 0 0
4282 429 2 0.145 3.6691576052754415 16.341841539007937 24.202100228707277 1 0 0
284 29 4 -0.7 6.061058760192143 18.505475648060912 27.051563095132504 0 0 0
4287 429 7 0.06 3.4928509293428243 17.43643330079972 24.301816237648918 1 0 0
4289 429 9 0.06 5.17969575634589 14.731647379956671 24.58874075115995 1 0 0
702 71 2 0.145 4.110210064709734 15.789051830496822 29.379236435235043 0 0 0
72 8 2 0.145 3.347478087015591 12.630841978767501 24.977029947464807 0 0 0
4288 429 8 0.06 5.817946161847745 16.228004239897455 24.06086220147502 1 0 0
992 100 2 0.145 5.74939532638404 13.77858622804969 21.182063799505286 0 0 0
701 71 1 -0.7 3.909351871997446 15.232944972973606 28.09629967326639 0 0 0
71 8 1 -0.7 4.208520533332438 12.402807967204781 23.904128053981513 0 0 0
4283 429 3 0.145 4.998964221392043 15.814571393027505 24.630925373271996 1 0 0
374 38 4 -0.7 4.828903145535822 12.413709979690267 28.350051353790516 0 0 0
706 71 6 0.06 3.9503748395367717 16.77199407078201 29.169967130763563 0 0 0
77 8 7 0.06 3.913129722059148 12.61024635288305 25.87386456777658 0 0 0
4281 429 1 -0.7 3.5273296826886074 16.112687081382234 22.823324075264573 1 0 0
705 71 5 0.435 4.02216752264663 14.278551940788025 28.24568628714635 0 0 0
4212 422 2 0.145 5.517248678429697 18.80421844938244 22.226026278768465 1 0 0
285 29 5 0.435 6.2901350298246355 16.974350917429078 28.454263341604026 0 0 0
4216 422 6 0.06 5.754199556676578 18.363900702463056 23.194898498337768 1 0 0
4218 422 8 0.06 3.4699247792633336 19.50439114269954 22.550719692441426 1 0 0
997 100 7 0.06 6.172328949983363 14.786642372220019 21.22974723364851 0 0 0
4285 429 5 0.435 2.833602998851365 16.683025405878702 22.52682221577247 1 0 0
73 8 3 0.145 2.4077373359269676 11.490170769141114 25.067313122238833 0 0 0
539 54 9 0.06 2.618843898979428 19.038670106367697 25.860788798386437 0 0 0
4217 422 7 0.06 5.280872651248657 18.128579053527666 21.36980463611252 1 0 0
4211 422 1 -0.7 6.662370816332256 19.567291637027633 21.8356726019851 1 0 0
290 29 10 0.435 5.765704210737995 17.711418134159537 26.571653604192193 0 0 0
76 8 6 0.06 2.860242674369587 13.608298439803626 24.82760083398786 0 0 0
380 38 10 0.435 5.115231668076079 11.702175909484291 27.797072453979702 0 0 0
4219 422 9 0.06 4.216863499339821 20.17964278779787 21.151757129880504 1 0 0
55 6 5 0.435 3.5848070705806014 12.520833500072854 20.698139891613287 0 0 0
4215 422 5 0.435 6.810277824556401 19.58284383204038 20.91557609277779 1 0 0
4606 461 6 0.06 4.017681616370487 19.32892243149614 29.238429035011535 1 0 0
4635 464 5 0.435 2.9628200237793085 11.69485746067188 29.530517092867704 1 0 0
377 38 7 0.06 6.870238359909569 13.962755147193443 28.056309356306045 0 0 0
1493 150 3 0.145 5.881946042131703 20.1340217038739 38.28904999167004 0 0 0
4601 461 1 -0.7 3.3465574318905276 18.420732001118544 31.019993376776043 1 0 0
443 45 3 0.145 6.251402159947947 17.809731238323913 33.44756926483837 0 0 0
1525 153 5 0.435 4.7324796235040925 16.618307642581588 35.63893617239602 0 0 -1
1649 165 9 0.06 6.780171928025011 14.193995730600566 36.63115761913643 0 0 0
378 38 8 0.06 5.532313781061438 13.38296016523717 29.98779125430514 0 0 0
1005 101 5 0.435 6.858020420004905 19.70022461555227 31.519098568865253 0 0 0
1274 128 4 -0.7 4.617383318089695 13.68012576667713 33.24700314091497 0 1 0
1522 153 2 0.145 2.9340897069950733 17.07068638042536 35.08944093203513 0 0 -1
4866 487 6 0.06 2.711532092191405 13.350035100687283 37.023159159043644 1 0 0
1280 128 10 0.435 4.377714017121166 14.430570990037936 32.67639380408567 0 1 0
1497 150 7 0.06 5.522055157266248 18.087097114667024 37.74151421188395 0 0 0
1492 150 2 0.145 4.981550078599906 18.9227734232803 38.178492073477216 0 0 0
448 45 8 0.06 5.258856520354158 18.160100568232558 33.3284477758643 0 0 0
442 45 2 0.145 6.84509625445671 17.0809783299727 32.1968898569251 0 0 0
704 71 4 -0.7 3.7745619576296066 15.663720043775136 31.66845556096202 0 0 0
710 71 10 0.435 3.588201686119892 16.60166273173677 31.484546057866005 0 0 0
444 45 4 -0.7 6.117294543452478 16.918032147982867 34.527269364871835 0 0 0
1521 153 1 -0.7 3.820302419090094 16.342464284729697 35.904220199379864 0 0 -1
4867 487 7 0.06 4.467737987827455 13.317413572781424 37.044468946160606 1 0 0
1279 128 9 0.06 3.692486706255603 12.306827202031064 34.23682173076924 0 1 0
1278 128 8 0.06 3.1875958655869945 12.307899169289113 32.492569243219926 0 1 0
4861 487 1 -0.7 3.664410811588667 11.718666057931983 37.73654567324168 1 0 0
1527 153 7 0.06 2.970562684992943 18.17617127585176 35.17720333378492 0 0 -1
1273 128 3 0.145 3.481362657073498 12.940837410115416 33.386779502390645 0 1 0
4862 487 2 0.145 3.606159748963593 13.089977742047223 37.61661623354007 1 0 0
4602 461 2 0.145 3.7838891285751837 19.47294726593333 30.289518715882316 1 0 0
1310 131 10 0.435 6.22951531629592 13.809300636431916 32.56442045830768 0 0 -1
1526 153 6 0.06 2.9780040253112365 16.909984990837955 33.97990907025406 0 0 -1
1496 150 6 0.06 4.112037706516998 19.041063209179775 37.52659732111762 0 0 0
4607 461 7 0.06 4.8116107035720965 19.677263252569364 30.639356766066825 1 0 0
707 71 7 0.06 5.179621717235644 15.781494588276672 29.606510304030632 0 0 0
708 71 8 0.06 3.3688769144075605 13.934851227680298 30.57836619722463 0 0 0
703 71 3 0.145 3.2993085556141755 15.053692366303213 30.466776362458162 0 0 0
1276 128 6 0.06 2.693800479288265 14.196796332696303 34.88432466236713 0 1 0
447 45 7 0.06 6.2874667857384825 16.221803304587944 31.88912312128137 0 0 0
379 38 9 0.06 6.01793598296146 11.6614028417037 29.823185710815046 0 0 0
1500 150 10 0.435 6.779470289940196 19.941747277977235 36.536296500362624 0 0 0
449 45 9 0.06 6.781572904887895 18.719761520288728 33.793137374978905 0 0 0
4865 487 5 0.435 4.41317276223695 11.537008027575402 37.093484609701726 1 0 0
4763 477 3 0.145 3.283119348735712 22.498036710099452 6.137907670121369 1 0 1
1142 115 2 0.145 3.681424776986674 25.88685964217167 10.322959737455758 0 0 0
4770 477 10 0.435 2.542176241404242 21.034330603006968 5.147829828652707 1 0 1
4311 432 1 -0.7 6.800591700292481 24.733581647356388 5.6765344408975 1 0 1
1584 159 4 -0.7 2.7977847352777467 28.588542922402706 3.713376451574935 0 0 1
4313 432 3 0.145 6.623317441370215 26.92350072781305 6.383977320448531 1 0 1
4315 432 5 0.435 5.958166061256038 25.02846136939205 5.246588139732595 1 0 1
1144 115 4 -0.7 2.5953469341617676 25.605706263213538 8.323282257527488 0 0 0
4266 427 6 0.06 2.7818953377521236 29.22724589572255 8.620793316245091 1 0 0
4728 473 8 0.06 6.508679372015303 22.632869158094024 9.752089493570592 1 0 0
1585 159 5 0.435 4.282721317281455 25.213869869694292 3.314087995159354 0 0 1
1150 115 10 0.435 3.5599287490363807 25.43205353665984 8.440399620985119 0 0 0
1586 159 6 0.06 3.4885087267836887 26.53146934910819 5.590790856030152 0 0 1
4262 427 2 0.145 3.61588835819327 29.20865564966529 7.881142271380159 1 0 0
4318 432 8 0.06 5.603077602370277 27.009168081741652 5.980127680946196 1 0 1
4267 427 7 0.06 3.5058735928180846 28.21367416444539 7.548150433945974 1 0 0
4764 477 4 -0.7 3.4043788855053876 21.29898443414933 5.475543987126572 1 0 1
1146 115 6 0.06 3.8134388439874893 27.036563822231788 10.477199471703003 0 0 0
4768 477 8 0.06 3.559276197675552 22.47161276262302 7.200502780508934 1 0 1
3547 355 7 0.06 3.61961604247971 22.468844975263597 9.906883099814921 1 0 0
1588 159 8 0.06 3.9901672718080716 27.47630606658904 2.6735669758395604 0 0 1
3546 355 6 0.06 3.809944354703122 20.95392327663054 10.698622403291893 1 0 0
1147 115 7 0.06 3.7943868166631143 25.500709520155738 11.309978779994468 0 0 0
1141 115 1 -0.7 4.683903722989214 25.24802188859489 9.511516868681076 0 0 0
1583 159 3 0.145 3.8502930224299523 27.719833930442046 3.703212475862086 0 0 1
1582 159 2 0.145 3.4572375201920513 26.4870070666281 4.468987471567471 0 0 1
1581 159 1 -0.7 4.533095715083423 25.61111269312766 4.186116385869431 0 0 1
4317 432 7 0.06 6.185878994893184 25.18165106905202 7.5560598414867295 1 0 1
1589 159 9 0.06 4.831474728564341 28.13676156881709 4.020076982539711 0 0 1
1145 115 5 0.435 5.399024037886188 25.073850941386738 10.131119232635237 0 0 0
4265 427 5 0.435 5.4997678996938575 28.994082403684263 8.129901630409519 1 0 0
3542 355 2 0.145 3.0635928627277496 21.77680851005463 10.584194923096693 1 0 0
4261 427 1 -0.7 4.802622670652232 29.441935112395683 8.6638348379755 1 0 0
4314 432 4 -0.7 6.762679858636979 27.92056788254257 7.343432295164642 1 0 1
1499 150 9 0.06 5.4359844402991175 20.984809156574027 2.6291709028721484 0 0 1
4769 477 9 0.06 3.957757771134756 23.08527227154563 5.527281807267319 1 0 1
1587 159 7 0.06 2.511562422417099 26.024776243501822 4.189714778500901 0 0 1
577 58 7 0.06 3.1023500494641856 22.26951248752136 2.654652415250789 0 0 0
415 42 5 0.435 4.500684866478481 24.4276898495857 16.017567514081357 0 0 0
419 42 9 0.06 6.355322431755022 24.191200102070486 13.934723199425575 0 0 0
414 42 4 -0.7 5.270825447358439 23.08042926620141 12.752775424011407 0 0 0
413 42 3 0.145 5.402437632633718 23.63023141066838 14.014758816428111 0 0 0
1091 110 1 -0.7 4.824978336836979 23.293220873164923 17.086122425116596 0 0 0
1098 110 8 0.06 3.745532560237674 20.930977675586483 17.361848298720364 0 0 0
5010 501 10 0.435 2.9386815393584063 27.86975704127711 19.900243347062155 1 0 0
5007 501 7 0.06 4.688245480330156 26.51825658142533 17.73551067306837 1 0 0
411 42 1 -0.7 4.4103456868428825 25.190818952445753 15.396148142056672 0 0 0
1096 110 6 0.06 2.861439348157456 23.682982832597162 17.739618536805956 0 0 0
5002 501 2 0.145 4.02292416938972 27.401709001314877 17.620430593894557 1 0 0
5005 501 5 0.435 3.838898259607451 26.880490659117278 15.818010740158961 1 0 0
878 88 8 0.06 5.421997533003992 26.350445610928915 20.145193654402007 0 0 0
1099 110 9 0.06 2.620483265991009 21.6527302250509 16.32346798730155 0 0 0
2422 243 2 0.145 4.112133828614615 29.044499569368185 13.026628401026892 0 0 0
412 42 2 0.145 4.219737768533161 24.540376661766377 14.135763585077042 0 0 0
2425 243 5 0.435 4.606152589242256 28.90319501823878 14.793093567023046 0 0 0