LAMMPS data file via write_data, version 29 Aug 2024, timestep = 7210000, units = real

6561 atoms
6 atom types
5832 bonds
5 bond types
9477 angles
7 angle types
10206 dihedrals
6 dihedral types

2.61101984698632 44.3301001530062 xlo xhi
2.9016494969071935 43.83546050307838 ylo yhi
2.974803151849102 43.46341684815668 zlo zhi

Masses

1 1.008
2 1.008
3 1.008
4 12.011
5 12.011
6 15.999

Pair Coeffs # lj/cut/coul/long

1 0 0.4
2 0.03 2.5
3 0.03 2.5
4 0.066 3.5
5 0.066 3.5
6 0.17 3.12

Bond Coeffs # harmonic

1 268 1.529
2 340 1.09
3 340 1.09
4 320 1.41
5 553 0.96

Angle Coeffs # harmonic

1 55 108.5
2 37.5 110.7
3 33 107.8
4 37.5 110.7
5 33 107.8
6 50 109.5
7 35 109.5

Dihedral Coeffs # opls

1 -0.356 -0.174 0.492 0
2 0 0 0 0
3 0 0 0 0
4 0 0 0.318 0
5 0 0 0.45 0
6 0 0 0.468 0

Atoms # full

4040 449 3 0.06 8.074245679460578 10.453172520503214 4.558468259521989 1 0 -1
3238 360 3 0.06 12.012225262693528 12.768936189862393 9.862617460270057 1 0 1
1637 182 3 0.06 7.531483049584323 5.306536725046528 6.201480858552998 2 2 -1
1635 182 5 -0.18 6.518922650587864 5.113455229950716 6.4181024978695005 2 2 -1
1550 173 6 -0.6830000000000001 8.41456601970373 10.950309691848782 7.44324495327106 2 0 -1
1630 182 4 0.145 6.39943488191153 3.6983615043607356 6.8485195148361235 2 2 -1
2144 239 6 -0.6830000000000001 6.713318027216003 8.887947716885225 7.939076490333883 0 1 1
2145 239 1 0.418 7.316454640143366 9.651603472415555 7.73848661573265 0 1 1
1358 151 3 0.06 4.8832832111050575 11.95882683142754 10.079062972576654 0 1 0
3237 360 5 -0.18 11.482066291061617 12.227374819748404 9.128931888554114 1 0 1
3239 360 3 0.06 10.47690212477471 12.058348384584425 9.368889040827897 1 0 1
6327 703 3 0.06 8.693128439276341 4.24299520917413 16.21004424657727 -1 0 0
4714 524 3 0.06 11.3214384862834 7.266678762961683 15.929122840494971 2 -1 0
2146 239 2 0.06 5.195895605290509 10.026016369868119 7.1408828975541585 0 1 1
1551 173 1 0.418 9.164802290183673 10.74152504323283 6.805396356132562 2 0 -1
4033 449 4 0.145 9.976969080043986 9.579456797677054 4.431795263245835 1 0 -1
2143 239 4 0.145 5.425765956970291 9.405429063713303 8.013359553893217 0 1 1
3232 360 4 0.145 12.342619599319624 11.039994272996505 8.726686180242671 1 0 1
2148 239 5 -0.18 4.274790337703181 8.507505240725685 8.33139329815941 0 1 1
4037 449 2 0.06 10.67888716184191 9.078845039171455 3.8157752011909163 1 0 -1
2149 239 3 0.06 3.4588857855438926 9.314377305790899 8.49002958451393 0 1 1
2147 239 2 0.06 5.522232637508395 10.096806751833206 8.801125531882253 0 1 1
4041 449 3 0.06 8.171212355225482 9.30029371745178 3.2199742475429973 1 0 -1
4034 449 6 -0.6830000000000001 10.444225352032095 10.723594577444874 5.218525093499677 1 0 -1
3991 444 2 0.06 5.579430689739171 10.76619174254818 5.216637297069738 1 0 1
139 16 2 0.06 12.428556923108095 4.286149086816867 14.538979135350463 -2 0 -1
3988 444 4 0.145 5.062673751539352 10.528500327500435 4.23333752266656 1 0 1
719 80 3 0.06 12.053580922688385 4.106252512469607 8.056423520499457 -1 1 1
2151 239 3 0.06 3.988065755757643 7.713995872734911 7.693074276421809 0 1 1
2150 239 3 0.06 4.511857134221583 7.977420273536795 9.305350209310506 0 1 1
4715 524 3 0.06 12.673495990122202 7.010014521582031 14.990505371347936 2 -1 0
2106 234 3 0.06 9.06964043667929 7.072729662342923 8.317138445573509 0 1 0
1357 151 3 0.06 5.461068158907166 12.304555519707716 11.661322309933485 0 1 0
4036 449 2 0.06 9.66619558316573 8.854326616141657 5.18255218464002 1 0 -1
3240 360 3 0.06 11.412078875754897 12.904237187966292 8.22974044378422 1 0 1
3993 444 5 -0.18 4.289173741537099 9.197109354728457 4.350453021326099 1 0 1
4038 449 5 -0.18 8.713897743163484 10.079801893131709 3.7063942953528004 1 0 -1
309 35 1 0.418 2.8609167174269805 4.248849629109035 14.971474095082252 -1 1 2
1293 144 5 -0.18 10.931147136912225 12.146595514971207 13.042669287450241 -1 0 1
1554 173 5 -0.18 7.110383040298765 12.824937998245554 8.396616919490839 2 0 -1
4035 449 1 0.418 10.761036598118473 11.414894913514189 4.615930428704881 1 0 -1
1638 182 3 0.06 6.224636252438755 5.789476189412355 7.198281132665589 2 2 -1
1294 144 3 0.06 11.48280243883737 12.340536540618489 13.971960897582095 -1 0 1
1359 151 3 0.06 4.278572947636976 11.121683176954873 11.577851624993066 0 1 0
2510 279 3 0.06 12.72343521070248 7.672722511662445 8.20685733364229 1 1 0
1291 144 2 0.06 8.742697343835907 12.61856161465703 13.276737797239429 -1 0 1
1549 173 4 0.145 8.20639107433333 12.338322401910512 7.334928564557327 2 0 -1
310 35 2 0.06 3.586069255696001 4.535965951645297 12.259990576877627 -1 1 2
1631 182 6 -0.6830000000000001 5.161893542278208 3.3286742911354428 7.072705754167453 2 2 -1
5461 607 3 0.06 2.85284530923757 6.5560634488181595 11.11929669027533 2 0 0
3994 444 3 0.06 3.290856573566488 9.280702796058037 4.849637556575568 1 0 1
1553 173 2 0.06 9.123693832323028 12.903824817426539 7.523493211229205 2 0 -1
3989 444 6 -0.6830000000000001 4.173269481900376 11.624526143255206 3.7991996035350404 1 0 1
2100 234 1 0.418 10.344324435777924 7.162002432947265 11.876839565690073 0 1 0
3236 360 2 0.06 12.028631944062777 10.567464307126048 7.8273677012848335 1 0 1
3996 444 3 0.06 4.024739832345143 8.98652435973722 3.2964020902199733 1 0 1
136 16 4 0.145 12.341707014347389 3.161382359140011 14.460016924002403 -2 0 -1
4709 524 6 -0.6830000000000001 11.628548309729577 8.131522288453919 12.646860244215965 2 -1 0
716 80 2 0.06 10.519973849998717 3.4354021094966836 9.766070978470454 -1 1 1
3749 417 2 0.06 6.891587135018108 4.65783994391772 13.196497736775187 0 0 0
1633 182 2 0.06 6.887044654475864 3.0221078443086413 6.1221464278793745 2 2 -1
308 35 6 -0.6830000000000001 3.256543999609473 4.769564834855752 14.27734293831465 -1 1 2
3700 412 4 0.145 4.227842511650525 12.1859110602319 15.74187663969842 2 0 1
1561 174 2 0.06 4.442758417589111 6.317584692920532 16.31960503014363 1 1 0
717 80 5 -0.18 12.230051573727335 3.1434647189472877 8.50924272578035 -1 1 1
3708 412 3 0.06 5.1478112623736525 12.33844928584307 13.773026216341812 2 0 1
1295 144 3 0.06 11.69679899095306 12.065118492304927 12.266048293575492 -1 0 1
1552 173 2 0.06 7.83879731876989 12.521706078234269 6.318376048802778 2 0 -1
5463 607 3 0.06 4.062604401373103 7.364252637243008 12.0925827395405 2 0 0
2104 234 3 0.06 9.201583458617616 5.5580888696337905 8.946563286885098 0 1 0
2103 234 5 -0.18 9.835660040611682 6.447886212614138 8.769430533574434 0 1 0
2105 234 3 0.06 10.630203276121629 6.25538032390048 8.028323721089183 0 1 0
4039 449 3 0.06 9.036641330505809 10.848830763615233 2.9966818431330364 1 0 -1
1693 189 4 0.145 7.485541280330989 8.547707993544702 15.964215381605705 0 0 0
1634 182 2 0.06 7.003747598881466 3.6423331108414807 7.752607871345336 2 2 -1
1296 144 3 0.06 10.56876138303588 11.124058268388403 13.053845146980821 -1 0 1
4711 524 2 0.06 10.34746291989496 8.77612070942073 14.098632663251147 2 -1 0
1699 189 3 0.06 8.771236868867792 6.895643657403062 15.318178628240164 0 0 0
3748 417 2 0.06 8.630774895665358 4.445286949894716 12.897360438313171 0 0 0
1289 144 6 -0.6830000000000001 9.472135948656552 13.0540845235349 11.346613179151326 -1 0 1
3750 417 5 -0.18 7.497421250060193 4.15059308461019 11.13760884510608 0 0 0
3752 417 3 0.06 7.55964646178732 5.1960797301050565 10.803625867082904 0 0 0
2102 234 2 0.06 10.762155125975465 8.00809961418048 9.994005975236703 0 1 0
2099 234 6 -0.6830000000000001 9.870239959019328 6.670552836538417 11.162768223742402 0 1 0
70 8 3 0.06 5.9724937735575905 9.090193334351785 10.868391289751116 0 1 0
3704 412 2 0.06 3.229467777558626 12.028651213616401 15.368115930302812 2 0 1
144 16 3 0.06 11.552915788484842 3.3901257643963616 12.389921957171312 -2 0 -1
3753 417 3 0.06 6.594950514956464 3.7797205816728687 10.806130734948859 0 0 0
1696 189 2 0.06 8.170094366707687 9.382982186527812 15.978294226420406 0 0 0
4716 524 3 0.06 11.059099602680563 6.421600791053201 14.31554508357883 2 -1 0
1556 173 3 0.06 7.287317380572974 12.545035866531395 9.376302152236644 2 0 -1
4708 524 4 0.145 11.399972231533388 8.442134254044577 14.02923742453507 2 -1 0
3235 360 2 0.06 12.286914123023504 10.331011705733378 9.503039161682945 1 0 1
3706 412 3 0.06 4.901124463768795 10.729271977996529 14.363329284149334 2 0 1
1636 182 3 0.06 6.153625083192935 5.253880828498969 5.4276476082572715 2 2 -1
2098 234 4 0.145 10.583899376342526 6.964161953499659 9.962357580835029 0 1 0
3751 417 3 0.06 8.391697589612761 3.6592416817958693 10.712328522766171 0 0 0
1700 189 3 0.06 8.178443743951972 7.8479793361589625 14.02027666689919 0 0 0
69 8 5 -0.18 6.857091290903473 8.702471818272087 11.403574543719191 0 1 0
1698 189 5 -0.18 7.937809131659496 7.452450722248584 15.025299761414837 0 0 0
1356 151 5 -0.18 4.522863718630224 12.082045546830388 11.150723757956008 0 1 0
64 8 4 0.145 7.689574874688706 9.79117726189794 12.032561363094631 0 1 0
72 8 3 0.06 7.436103377316601 8.259961230881734 10.630728686558346 0 1 0
3705 412 5 -0.18 5.17992975638599 11.682244703733257 14.661409603411029 2 0 1
4712 524 2 0.06 12.013219948137193 9.33169362754267 14.233336490744739 2 -1 0
68 8 2 0.06 8.531145819895332 9.32493877514183 12.57192196520362 0 1 0
65 8 6 -0.6830000000000001 8.066795437839103 10.613900446048113 10.984268337753893 0 1 0
1701 189 3 0.06 7.209596866678117 6.6636023029772655 14.904403764058946 0 0 0
71 8 3 0.06 6.36383145542522 8.034745126807255 12.15965289079912 0 1 0
67 8 2 0.06 7.167734802628057 10.411186062672321 12.741868197640569 0 1 0
2101 234 2 0.06 11.55361118967636 6.440391730155291 10.047476917080639 0 1 0
4713 524 5 -0.18 11.616858603936075 7.228881349165362 14.846175008950182 2 -1 0
66 8 1 0.418 8.484638108268252 9.935025625949057 10.426663551091732 0 1 0
1697 189 2 0.06 6.535505586914739 8.948013174994122 15.565367594396218 0 0 0
3745 417 4 0.145 7.664695218494411 4.03556652165953 12.646445714472465 0 0 0
4710 524 1 0.418 12.48213389642019 8.529577126923968 12.422253431094948 2 -1 0
3995 444 3 0.06 4.887140159802351 8.411488526179756 4.728000523506986 1 0 1
1557 173 3 0.06 6.134678145441897 12.46938974344736 8.194912363356401 2 0 -1
1290 144 1 0.418 9.140562260532977 12.116543040593294 11.073215499251395 -1 0 1
5458 607 2 0.06 3.2602409797620275 9.226046856301659 10.839105737434572 2 0 0
3992 444 2 0.06 5.890089697902789 10.494542027480284 3.519167191363503 1 0 1
3990 444 1 0.418 3.6316469313792363 11.750385522334431 4.6070978636649915 1 0 1
5460 607 5 -0.18 2.9705922938965528 7.324080712629182 11.89557740540486 2 0 0
2885 321 2 0.06 3.268777022935308 13.053396451145773 7.5037204315870705 0 0 2
1351 151 4 0.145 3.2262373945206138 12.988502128220853 11.247779207130383 0 1 0
3707 412 3 0.06 6.1935948828127465 11.743962319098605 14.96403605769324 2 0 1
307 35 4 0.145 3.190258369089925 3.9398889540802626 13.086926565509009 -1 1 2
2473 275 3 0.06 3.2431410851425717 8.029782013397622 14.820979333840361 0 1 0
5755 640 2 0.06 4.9511201856640525 4.243253361268316 3.256281000689765 1 0 -2
1566 174 3 0.06 5.1793405400185355 3.9107870853538937 15.8652445980694 1 1 0
1288 144 4 0.145 9.720524369952933 13.010734829633979 12.796141789872213 -1 0 1
1890 210 3 0.06 12.616940614997516 13.118922996655089 16.267438621059092 0 -1 -1
1565 174 3 0.06 6.5733350556938 4.802982203530672 16.44760762281365 1 1 0
4223 470 6 -0.6830000000000001 6.6777238929475775 10.769290239447233 18.41672827860608 1 1 0
3511 391 4 0.145 8.03704292673255 7.748468411698821 20.924920352409455 1 1 0
3513 391 1 0.418 6.307853101567983 7.078758889102109 21.150118094833996 1 1 0
1695 189 1 0.418 7.012185613674763 8.959879157339625 17.79923288767896 0 0 0
4227 470 5 -0.18 8.329183982470433 12.458727473378117 18.413457263779456 1 1 0
4229 470 3 0.06 9.06256247024831 11.924226135666672 17.809757191162475 1 1 0
6326 703 3 0.06 9.006680013709264 5.481972887144541 17.515557924724156 -1 0 0
2775 309 1 0.418 6.381138886364676 13.091740885486919 28.329462269485145 3 1 1
4226 470 2 0.06 6.793785046929888 11.981420386121314 20.06186951571471 1 1 0
168 19 5 -0.18 11.323903194006773 9.857544335934165 18.57318183122746 0 0 -2
1564 174 3 0.06 5.484279104104421 3.9444519539738736 17.70558241537224 1 1 0
3515 391 2 0.06 7.898555043247439 8.611818990260883 20.392944224182703 1 1 0
163 19 4 0.145 12.359268638198817 10.774302323545744 19.21593153696726 0 0 -2
1442 161 6 -0.6830000000000001 10.748928167796874 12.429852105534092 22.36654735355654 0 0 0
530 59 3 0.06 2.9637863112443434 7.315247659737489 21.085472880653192 0 2 1
3512 391 6 -0.6830000000000001 6.989077853173826 7.313542727528016 21.76836608352895 1 1 0
4222 470 4 0.145 7.47548084236823 11.50935435304628 19.268312373363678 1 1 0
4224 470 1 0.418 5.992729125566162 11.337648063856898 17.988301063264004 1 1 0
4225 470 2 0.06 8.1342753972032 10.750895975447577 19.781815290439088 1 1 0
3514 391 2 0.06 8.866742303418798 7.9233018047377515 21.62178444558245 1 1 0
214 24 3 0.06 2.998221740551861 10.892904482299343 22.816554498374007 -2 -1 0
3517 391 3 0.06 9.100094087139912 6.980277879516586 19.18672365177168 1 1 0
167 19 2 0.06 12.201559846795842 11.779758840043696 18.837090334785888 0 0 -2
165 19 1 0.418 12.419343771340163 9.773809636187842 20.927001606568293 0 0 -2
164 19 6 -0.6830000000000001 12.187815659283501 10.694074290213036 20.590933750454884 0 0 -2
3516 391 5 -0.18 8.483979132402599 6.661849179109865 19.968504059650385 1 1 0
3519 391 3 0.06 8.863902298820065 5.734047893926118 20.456815537806595 1 1 0
6319 703 4 0.145 9.175033815902882 3.4487779176017774 18.19482983495203 -1 0 0
3518 391 3 0.06 7.59286412340794 6.191432182291361 19.537579197834553 1 1 0
525 59 1 0.418 4.81040058381764 6.388405481389427 19.75852063569262 0 2 1
215 24 3 0.06 3.386805256709649 9.73984529130019 21.70085619500405 -2 -1 0
524 59 6 -0.6830000000000001 4.781672986152019 6.062728889507528 20.68542968336196 0 2 1
1443 161 1 0.418 11.174931132048126 11.95474338126038 21.678563955985922 0 0 0
6322 703 2 0.06 9.733882298618122 3.625047363442239 19.16670216882264 -1 0 0
212 24 2 0.06 5.34555518788787 8.959676298757126 23.117041163291407 -2 -1 0
2466 274 3 0.06 6.98876275162639 3.1723109034264474 21.082601885926717 1 1 -1
527 59 2 0.06 3.242478677283786 4.720183491073325 20.066814508896655 0 2 1
1559 174 6 -0.6830000000000001 5.394306100328722 6.481190973876716 18.059292271441947 1 1 0
526 59 2 0.06 3.622399339623393 4.748900131017237 21.71738456568346 0 2 1
1449 161 3 0.06 8.33875981540442 10.14984383088425 22.70233030457189 0 0 0
523 59 4 0.145 3.539028328501276 5.338995688033705 20.848451967194176 0 2 1
2468 275 6 -0.6830000000000001 4.3631184837619745 8.969725068686966 16.811921295106778 0 1 0
1445 161 2 0.06 9.100913875977907 12.408407595912768 23.564685511288655 0 0 0
2467 275 4 0.145 2.9283705728506058 8.678975123221713 16.866450455286127 0 1 0
2774 309 6 -0.6830000000000001 6.160249546958644 13.060922287744425 29.23948141448613 3 1 1
211 24 2 0.06 3.9315073727670193 9.024860170619501 24.149485440742975 -2 -1 0
4608 512 3 0.06 8.472929599509197 11.986167617817433 28.196451250365875 -1 1 1
1447 161 3 0.06 10.106813278421996 9.949111667589838 23.0126241677401 0 0 0
1441 161 4 0.145 9.409520904077587 12.094696069263465 22.51729970125739 0 0 0
1558 174 4 0.145 4.6884465242329725 5.665399019366346 17.14701096664035 1 1 0
1563 174 5 -0.18 5.55437622311657 4.501443333642191 16.780896033493153 1 1 0
213 24 5 -0.18 3.8535393818983072 10.349131001472106 22.486704819413887 -2 -1 0
4601 512 6 -0.6830000000000001 6.66682900465135 12.945342008903697 26.648034545543663 -1 1 1
474 53 5 -0.18 11.854700007045453 10.748253649372941 29.36437282601938 0 1 0
1560 174 1 0.418 6.2819749527838 6.718274699362128 17.659401623717528 1 1 0
473 53 2 0.06 9.808008358817698 11.059585303038327 29.591781025526206 0 1 0
2730 304 1 0.418 12.592706472353159 7.631423441310993 22.02058444718878 0 2 0
2469 275 1 0.418 4.7825331516481135 8.151155256091766 17.19888547816003 0 1 0
3702 412 1 0.418 4.47003671666786 10.684310435538908 16.948001161171277 2 0 1
208 24 4 0.145 4.601298604548596 9.588733457591037 23.54320128794214 -2 -1 0
5706 634 3 0.06 12.118847052877685 5.234431213455948 18.09603755451368 1 0 -1
170 19 3 0.06 11.474950969175186 9.9572144413841 17.47451391941945 0 0 -2
1448 161 3 0.06 9.54464248614278 10.214960026748507 21.37319578844169 0 0 0
171 19 3 0.06 10.290835541380403 10.007932715940816 18.811301807092633 0 0 -2
2471 275 2 0.06 2.7640172802743432 7.917936427080393 17.622940753012017 0 1 0
5876 653 3 0.06 3.918553212377144 4.127128727447665 27.394892922067882 1 -1 2
837 93 3 0.06 3.2252261024678357 12.553491818090828 26.122808767560468 0 0 -1
5875 653 3 0.06 3.543746408084553 4.5833044442036 29.05483674822519 1 -1 2
2732 304 2 0.06 12.896629395576424 9.854634912573776 23.53328785467226 0 2 0
216 24 3 0.06 4.491772872973188 11.055792158794784 22.040690035097516 -2 -1 0
5705 634 3 0.06 11.847888128164946 6.80071119259952 18.827698065647525 1 0 -1
2608 290 3 0.06 4.007006818641054 8.50156222904371 29.745180883167766 1 1 0
2262 252 1 0.418 3.1407554309979093 12.181883294779766 18.322923965159816 -1 1 1
5703 634 5 -0.18 12.402654116690528 5.891051388201743 18.930177610542152 1 0 -1
2604 290 1 0.418 5.497792391483966 11.688833370633914 29.930244935305765 1 1 0
1444 161 2 0.06 8.726629750545097 12.54278358792223 21.810979146282172 0 0 0
5701 634 2 0.06 11.29245412722299 4.8792016568274645 20.63018130946716 1 0 -1
5700 634 1 0.418 12.68928809596371 5.63669321005966 22.1691989308009 1 0 -1
5699 634 6 -0.6830000000000001 12.767891181125124 6.073259350347495 21.271783941199317 1 0 -1
6325 703 3 0.06 10.239695955838727 4.648710750032591 16.62062305863286 -1 0 0
2606 290 2 0.06 5.143283029310849 10.119302079424887 28.477617467572898 1 1 0
6556 729 2 0.06 12.427460469474633 3.57542182053564 25.3735549916874 2 0 1
169 19 3 0.06 11.416960366502071 8.836339261430304 18.876450747273257 0 0 -2
5877 653 3 0.06 4.089229010648342 5.733283617596717 27.961044350559757 1 -1 2
1694 189 6 -0.6830000000000001 7.376837116199139 8.198927071180108 17.310308871557915 0 0 0
475 53 3 0.06 12.096046926146112 11.7563752481679 28.96807107340832 0 1 0
477 53 3 0.06 12.749977527231673 10.384675175096422 29.95758802382491 0 1 0
1562 174 2 0.06 3.732295910895955 5.239696519441345 17.58814635541814 1 1 0
5874 653 5 -0.18 4.210505889041209 4.731892800561981 28.198922416824747 1 -1 2
2605 290 2 0.06 6.649196875888601 9.92749662181 29.308682941908963 1 1 0
3701 412 6 -0.6830000000000001 4.514681153604595 11.687735728585574 17.006220841003802 2 0 1
4607 512 3 0.06 9.768329357856297 11.925760650676084 27.090312041139565 -1 1 1
831 93 1 0.418 5.108074916184858 12.307345945070907 24.45930709646794 0 0 -1
2972 331 6 -0.6830000000000001 6.4121388344473935 6.820325764844011 24.518553413855866 1 0 1
6554 729 6 -0.6830000000000001 12.28820244709037 4.748324220279308 23.661624131960163 2 0 1
2971 331 4 0.145 5.562362332709479 5.696223642080092 24.755007932786846 1 0 1
476 53 3 0.06 11.628073195889103 10.235951917974106 28.372631668698507 0 1 0
6324 703 5 -0.18 9.285944743997554 4.503376537660034 17.07543009142016 -1 0 0
2602 290 4 0.145 5.572174116248684 9.936373554153244 29.467828295676593 1 1 0
1446 161 5 -0.18 9.356663375754433 10.505544439591752 22.40668558973627 0 0 0
2973 331 1 0.418 6.461444685538453 6.9859931156496495 23.571009365903514 1 0 1
5072 564 2 0.06 10.163816031894626 7.331641262768713 23.79426478339729 2 0 2
5076 564 3 0.06 8.549607035194814 8.785766368773796 25.29569853486873 2 0 2
6323 703 2 0.06 8.143460435378254 3.375947112150411 18.35292913512258 -1 0 0
6555 729 1 0.418 11.642553356274062 5.182868465530202 24.253524064894936 2 0 1
4600 512 4 0.145 7.880204939194701 12.466549749702528 26.10755250617164 -1 1 1
5869 653 4 0.145 5.685270057378184 4.5437596673965555 28.58394890054928 1 -1 2
5071 564 2 0.06 9.14427815613985 6.546263129809775 25.0720718511613 2 0 2
638 71 3 0.06 10.166707802809254 3.5867728219680863 26.179176696369357 1 0 1
2607 290 5 -0.18 5.097161310960292 8.550564536243314 29.8664956524531 1 1 0
4605 512 5 -0.18 8.854157592231495 12.364173035122073 27.25308060345722 -1 1 1
2976 331 5 -0.18 4.0604755317368895 6.133684012143185 24.681784986593673 1 0 1
5702 634 2 0.06 12.94138895834414 4.265549673205043 20.399159051715582 1 0 -1
2610 290 3 0.06 5.55322437785262 7.812359630765951 29.208796025282656 1 1 0
2978 331 3 0.06 3.545203457281574 5.315594273640797 25.192859792320437 1 0 1
4604 512 2 0.06 7.736368317482208 11.511862633006901 25.648056754944975 -1 1 1
631 71 4 0.145 9.156314086534838 4.6678816501784315 27.66861106164611 1 0 1
636 71 5 -0.18 9.616893617512732 3.3818517136340933 27.004599386958358 1 0 1
633 71 1 0.418 10.059462489428451 5.792263468330384 29.033577606668047 1 0 1
632 71 6 -0.6830000000000001 10.256634107540668 5.390336741661445 28.185698554886066 1 0 1
5870 653 6 -0.6830000000000001 5.866679516083199 3.317628386460935 29.15875172113272 1 -1 2
5873 653 2 0.06 6.134221438329739 5.260455942839133 29.226342124093218 1 -1 2
5698 634 4 0.145 12.325704639857186 5.170708085202231 20.31482311638128 1 0 -1
5872 653 2 0.06 6.306397027469298 4.458942061218709 27.681944382916747 1 -1 2
635 71 2 0.06 8.541440595334915 4.300113534821075 28.51899104375308 1 0 1
209 24 6 -0.6830000000000001 5.3064075137466755 10.461106794085394 24.37583533138738 -2 -1 0
5074 564 3 0.06 10.240791674018098 9.362440116105997 25.423724095351805 2 0 2
2974 331 2 0.06 5.758771445535307 5.232254361806382 25.712876557394573 1 0 1
210 24 1 0.418 5.7328385681195275 9.955131672757865 25.075581153322 -2 -1 0
2975 331 2 0.06 5.9264139735394625 4.981825115873876 23.976062140177707 1 0 1
5075 564 3 0.06 9.721655730992374 8.460991542534426 26.666941008133534 2 0 2
5070 564 1 0.418 10.73704717089228 6.498425899060864 26.474861457619696 2 0 2
634 71 2 0.06 8.378810180000453 5.06932527095884 26.99274750809775 1 0 1
5069 564 6 -0.6830000000000001 11.11876872068878 6.707158125085294 25.616651808795297 2 0 2
2979 331 3 0.06 3.634853396535011 6.426573330684028 23.73283890996731 1 0 1
2977 331 3 0.06 3.9769872679528664 6.991739017039966 25.34607200161578 1 0 1
5068 564 4 0.145 10.036570665534562 7.266072380277229 24.91031422301946 2 0 2
5073 564 5 -0.18 9.623846951312723 8.545152730564007 25.586151329989114 2 0 2
2729 304 6 -0.6830000000000001 12.428759162706191 8.573398331625947 22.218581275462455 0 2 0
2464 274 3 0.06 5.498368404353963 3.3296064731738433 20.29914439343519 1 1 -1
6001 667 3 0.06 12.994604438994825 12.068995870114879 26.590745274533546 0 0 -2
832 93 2 0.06 3.245589185159634 12.97846829137322 23.635275223303044 0 0 -1
4228 470 3 0.06 7.735225164011138 13.099535884853427 17.732227855290716 1 1 0
639 71 3 0.06 8.65238252293091 2.9040122393954517 26.734250417525605 1 0 1
3395 378 6 -0.6830000000000001 5.640167291931434 9.975138236665865 32.80572823445665 0 0 0
3396 378 1 0.418 5.306887721321437 10.201218003062902 31.896624675260227 0 0 0
2577 287 1 0.418 5.619913147293714 8.287575094909684 33.49282870109534 0 1 0
3400 378 3 0.06 7.837652532991294 11.11674288374888 31.512073618622104 0 0 0
3394 378 4 0.145 6.441019954280877 11.042332291482447 33.255527434336244 0 0 0
3399 378 5 -0.18 7.800452223044979 10.921080408522226 32.59295265332219 0 0 0
2576 287 6 -0.6830000000000001 5.698056431024536 7.382177729794408 33.89070490900629 0 1 0
2575 287 4 0.145 5.8192176128664475 7.570451774483181 35.311975867145144 0 1 0
3402 378 3 0.06 8.371431700896617 11.725713511483637 33.184557342487906 0 0 0
470 53 6 -0.6830000000000001 10.428692820379 9.464696185254038 30.80769132393283 0 1 0
3398 378 2 0.06 5.907298880577174 11.861423578564988 32.8367121415011 0 0 0
3401 378 3 0.06 8.393214475557635 9.979563107984175 32.6121983519556 0 0 0
3397 378 2 0.06 6.471854916905068 11.075878127174724 34.31664806063492 0 0 0
471 53 1 0.418 11.140551827136417 9.422067799401685 31.50366461975971 0 1 0
5556 618 1 0.418 11.021203886824939 13.080751080508037 42.59564843967886 2 -1 0
2339 260 3 0.06 11.078427785394581 7.083945960496624 33.30831631508292 0 0 0
2578 287 2 0.06 6.701869419912339 8.144159689349152 35.45962915784021 0 1 0
2603 290 6 -0.6830000000000001 5.050047786752395 10.909534723677671 30.278234275783504 1 1 0
2583 287 3 0.06 4.364286850993575 9.192314130019016 35.15847045567554 0 1 0
3738 416 1 0.418 4.92875559385376 5.800161451110471 33.81823792265722 2 0 0
2580 287 5 -0.18 4.479499493172901 8.240260421888575 35.746505019729675 0 1 0
6193 689 4 0.145 4.291997585729699 12.137633227785997 36.301069745740456 2 0 1
5759 640 3 0.06 5.170754218519171 6.527166180114671 42.96571480105246 1 0 -3
6196 689 2 0.06 3.989240351840765 11.25399538931913 36.919461169141904 2 0 1
965 108 6 -0.6830000000000001 7.348863514008234 5.778250784129247 39.30651936723884 1 0 0
2579 287 2 0.06 5.997587483124173 6.566820247034196 35.79283396053837 0 1 0
4400 489 3 0.06 8.312686433429782 4.75431371645997 31.898218918543918 1 1 -1
6198 689 5 -0.18 3.084119907298066 12.596630284649246 35.4637824202771 2 0 1
4393 489 4 0.145 8.029100749504808 6.8476894003949935 31.18160584261869 1 1 -1
2060 229 3 0.06 11.886426555568786 12.67096551368245 33.32188930194104 1 1 1
3928 437 2 0.06 9.868967395277238 8.993217078479177 35.59658760351838 1 0 -1
3931 437 3 0.06 10.501820094681765 11.150415463455587 34.43177749895646 1 0 -1
2783 310 6 -0.6830000000000001 10.504211410033621 10.228712150008565 40.07513105971746 2 1 -1
3737 416 6 -0.6830000000000001 4.431393611738115 5.017177912888613 33.51486065138178 2 0 0
4399 489 3 0.06 9.276972548324853 5.897049013415063 32.492947541831825 1 1 -1
4398 489 5 -0.18 8.315216871831014 5.767075462396463 32.22265494489151 1 1 -1
4401 489 3 0.06 7.6404332172662786 5.873302765349093 33.09395164276556 1 1 -1
472 53 2 0.06 10.78346738554902 11.359294573001396 31.070502382100983 0 1 0
3929 437 2 0.06 11.377570230792273 9.585333441246679 36.168283357946045 1 0 -1
2581 287 3 0.06 4.4714303023448885 8.541918567502744 36.78717300044702 0 1 0
4057 451 3 0.06 10.098224557271207 3.546451349016042 31.791643796594183 1 0 0
4397 489 2 0.06 7.664233940513175 7.678094826141006 31.74038211121392 1 1 -1
3721 414 2 0.06 12.075835845543121 4.870616470579493 37.38663058441087 0 -1 -1
2340 260 3 0.06 12.29088627688357 5.824493393304847 32.675637421698326 0 0 0
2337 260 5 -0.18 11.84344679018206 6.827367019576727 32.52844509730869 0 0 0
1756 196 4 0.145 3.320964017412339 2.959862460889981 36.12836281070345 0 -1 0
2332 260 4 0.145 12.934414457884898 7.88690647453678 32.561430670059245 0 0 0
5752 640 4 0.145 4.729244868177033 4.496625800660645 42.774610169592236 1 0 -3
4394 489 6 -0.6830000000000001 8.966610885365345 7.054432084677212 30.169702541954276 1 1 -1
2582 287 3 0.06 3.576812380925386 7.60223514302419 35.54024215419206 0 1 0
821 92 6 -0.6830000000000001 4.991299896455795 3.084343731613015 31.490799929978582 0 1 -2
3739 416 2 0.06 2.7386029510127923 5.973493281238879 34.1718196518588 2 0 0
2597 289 2 0.06 8.67669303515126 6.668497866704053 41.60821587249345 1 0 1
972 108 3 0.06 5.619725427136258 4.734684123229471 37.26155085311572 1 0 0
6197 689 2 0.06 5.104590495259581 11.898289958255024 35.70808727088842 2 0 1
2600 289 3 0.06 11.09111645325381 6.445649439777818 42.60181484347115 1 0 1
5192 577 3 0.06 11.154191192565493 2.982585962685533 38.89299706928921 2 1 -2
971 108 3 0.06 6.822026123327222 3.8208172589036127 36.852580201319455 1 0 0
3925 437 4 0.145 10.280261194569007 9.82933238070199 36.14820745218919 1 0 -1
3933 437 3 0.06 8.963119309511818 11.26108788664128 35.427255373680346 1 0 -1
3930 437 5 -0.18 9.992742982906233 11.176079614198947 35.4761662584098 1 0 -1
6528 726 1 0.418 4.776704232388962 12.192393997552305 40.311767690606594 1 -1 1
2338 260 3 0.06 11.389832036387768 6.942299821374211 31.513436548808354 0 0 0
2788 310 3 0.06 12.103756413134326 9.73246515957454 42.11662705249358 2 1 -1
3736 416 4 0.145 3.100579532682238 5.447082747524034 33.30975886722621 2 0 0
3724 414 3 0.06 12.684295902669733 6.6251320982523385 35.30908489705039 0 -1 -1
822 92 1 0.418 4.638687661513999 3.847157618640619 31.93954509183703 0 1 -2
4396 489 2 0.06 7.145976201135069 6.5926698770449015 30.6666555177585 1 1 -1
469 53 4 0.145 10.666952564969751 10.718292802137125 30.219304546483443 0 1 0
5757 640 5 -0.18 4.330629175666827 5.970778665780683 42.65367610201658 1 0 -3
1764 196 3 0.06 3.5456554743748545 5.151613152888417 36.320557339840875 0 -1 0
3718 414 4 0.145 12.760500090073933 5.774127744381403 37.40354596539336 0 -1 -1
5191 577 3 0.06 10.940121034652332 3.053226079961997 40.615839515112434 2 1 -2
4449 495 1 0.418 3.9824331709433998 11.970124701112297 42.536339641480765 2 0 -1
4059 451 3 0.06 11.500681941933843 2.9361237715609305 30.959523871962897 1 0 0
5758 640 3 0.06 4.1711599650249855 6.210712624434914 41.6188623075902 1 0 -3
4448 495 6 -0.6830000000000001 3.863607566841896 11.775318110773982 41.57575381348221 2 0 -1
5753 640 6 -0.6830000000000001 5.844388355634332 4.235148481340006 41.92396452712337 1 0 -3
968 108 2 0.06 7.878895256538311 5.9606230093354124 37.31295365856128 1 0 0
83 10 6 -0.6830000000000001 11.435753761124914 12.811460769599442 40.778402142127334 1 1 0
3559 396 2 0.06 12.619039216986941 11.589599607857428 37.72307602347541 1 -1 2
5756 640 2 0.06 3.839639446543231 3.862265374621054 42.51238643624381 1 0 -3
6530 726 2 0.06 6.419535566734044 12.560003227360204 41.258219727144066 1 -1 1
3926 437 6 -0.6830000000000001 9.852554032942644 9.760805398551723 37.49865417701271 1 0 -1
2876 320 2 0.06 7.39948716292849 9.03694362895013 40.225446203603504 -1 1 0
4056 451 5 -0.18 10.418545036459502 3.126686208654915 30.84990619757087 1 0 0
6526 726 4 0.145 6.596510287898382 12.753363924963919 40.21707653851582 1 -1 1
2593 289 4 0.145 9.027529996507129 5.807727554871672 42.20614698125485 1 0 1
2789 310 3 0.06 12.809755464432923 8.2407576124384 41.6493612421119 2 1 -1
2598 289 5 -0.18 10.55236552094479 5.5654330566996615 42.320174288628095 1 0 1
964 108 4 0.145 7.657897535078082 5.230340175280412 38.09989459411402 1 0 0
1761 196 5 -0.18 2.8533794576153566 4.294497545827849 36.66911174362416 0 -1 0