LAMMPS data file via write_data, version 29 Aug 2024, timestep = 1000000, units = real

5831 atoms
17 atom types
5488 bonds
16 bond types
9261 angles
27 angle types
10290 dihedrals
30 dihedral types
2744 impropers
8 improper types

3.5472647386405143 41.452735261346724 xlo xhi
3.5472647386405143 41.452735261346724 ylo yhi
3.5472647386405143 41.452735261346724 zlo zhi

Masses

1 15.999
2 12.011
3 12.011
4 15.999
5 12.011
6 12.011
7 15.999
8 1.008
9 1.008
10 1.008
11 1.008
12 1.008
13 1.008
14 1.008
15 1.008
16 1.008
17 1.008

Pair Coeffs # lj/cut/coul/long

1 0.17 3.07
2 0.066 3.5
3 0.066 3.5
4 0.14 2.9
5 0.066 3.5
6 0.066 3.5
7 0.17 3.07
8 0 0
9 0.03 2.5
10 0.03 2.5
11 0.03 2.5
12 0.03 2.5
13 0.03 2.5
14 0.03 2.5
15 0.03 2.5
16 0.03 2.5
17 0 0

Bond Coeffs # harmonic

1 320 1.41
2 268 1.529
3 320 1.41
4 320 1.41
5 268 1.529
6 320 1.41
7 553 0.945
8 340 1.09
9 340 1.09
10 340 1.09
11 340 1.09
12 340 1.09
13 340 1.09
14 340 1.09
15 340 1.09
16 553 0.945

Angle Coeffs # harmonic

1 50 109.5
2 50 109.5
3 60 109.5
4 50 109.5
5 50 109.5
6 55 108.5
7 35 109.5
8 35 109.5
9 37.5 110.7
10 37.5 110.7
11 35 109.5
12 35 109.5
13 37.5 110.7
14 37.5 110.7
15 55 108.5
16 35 109.5
17 33 107.8
18 33 107.8
19 33 107.8
20 37.5 110.7
21 33 107.8
22 37.5 110.7
23 37.5 110.7
24 35 109.5
25 35 109.5
26 35 109.5
27 37.5 110.7

Dihedral Coeffs # opls

1 4.319 0 0 0
2 0.65 -0.25 0.67 0
3 0.65 -0.25 0.67 0
4 4.319 0 0 0
5 -0.35601 -0.174 0.492 0
6 -0.35601 -0.174 0.492 0
7 0 0 0.3 0
8 0 0 0.468 0
9 0 0 0.3 0
10 0 0 0.3 0
11 0 0 0.76 0
12 0 0 0.468 0
13 0 0 0.468 0
14 0 0 0.468 0
15 0 0 0.468 0
16 0 0 0.468 0
17 0 0 0.45 0
18 0 0 0.3 0
19 0 0 0.3 0
20 0 0 0.76 0
21 0 0 0.468 0
22 0 0 0.76 0
23 0 0 0.45 0
24 0 0 0.45 0
25 0 0 0.3 0
26 0 0 0.3 0
27 0 0 0.3 0
28 0 0 0.468 0
29 0 0 0.45 0
30 0 0 0.76 0

Improper Coeffs # cvff

1 0 -1 2
2 0 -1 2
3 0 -1 2
4 0 -1 2
5 0 -1 2
6 0 -1 2
7 0 -1 2
8 0 -1 2

Atoms # full

630 38 1 -0.7 7.7526323735174465 7.742422616333931 10.548229494966435 0 1 0
631 38 2 0.145 8.839965858023248 6.91224858203091 10.439370553914504 0 1 0
637 38 8 0.435 7.819935211706318 8.468474678648857 9.905487891641659 0 1 0
5735 338 6 0.145 9.92687550054849 5.959493953783074 5.098553021452931 1 1 0
4864 287 2 0.145 5.4276482651107205 8.45429690286338 7.1191132824365635 1 1 1
5734 338 5 0.14 10.946876284043512 6.390298145440781 6.1305825969481 1 1 0
4865 287 3 0.14 6.02245682256156 7.037787120553341 7.345230817989458 1 1 1
4866 287 4 -0.4 4.998123891064672 6.2450722830907175 7.993863534314642 1 1 1
5736 338 7 -0.7 8.770757871366722 5.304478240175476 5.660869661505348 1 1 0
632 38 3 0.14 9.068431363863855 5.987981981689131 11.607181342364537 0 1 0
638 38 9 0.06 9.786698411092397 7.5415100108165145 10.283734942551341 0 1 0
5743 338 14 0.03 10.332510437334243 7.009290376653068 6.82943081273342 1 1 0
639 38 10 0.06 8.678090959531012 6.387004936264628 9.55198953650367 0 1 0
4874 287 12 0.03 6.305284665565581 6.6416906624393235 6.330880500066659 1 1 1
4871 287 9 0.06 5.387698457101562 8.89946437110137 8.151378409999804 1 1 1
4873 287 11 0.03 6.96160674047377 7.074153522374344 7.938188950606885 1 1 1
641 38 12 0.03 9.552367294420156 6.565071579294573 12.343030387488193 0 1 0
4867 287 5 0.14 5.128856574622826 4.8555620233784875 7.828695395927585 1 1 1
4420 260 17 0.435 6.190904487506954 8.002677765240627 11.347259328100835 1 0 0
4410 260 7 -0.7 5.394350745464603 8.250412967425241 11.763434871342476 1 0 0
4872 287 10 0.06 6.024017481717522 9.139824747621422 6.530848615610353 1 1 1
5733 338 4 -0.4 11.44312938848243 5.170562841327414 6.676843782584241 1 1 0
633 38 4 -0.4 9.8557646247049 4.897863574720943 11.164073572082238 0 1 0
640 38 11 0.03 8.1303969116952 5.673273942380082 12.051109183084925 0 1 0
1850 109 14 0.03 6.827066105489871 15.293451661438693 4.359042065539336 0 0 1
5746 338 17 0.435 8.981247958041639 4.392013408062562 5.898639308416893 1 1 0
5744 338 15 0.06 10.40360151415125 5.208576285599317 4.3872206703952825 1 1 0
4419 260 16 0.06 4.739188824594053 6.398993543259145 10.998352477437688 1 0 0
4409 260 6 0.145 4.34791055318429 7.33607400851246 11.32498273649638 1 0 0
5742 338 13 0.03 11.699485764987905 6.915448930251239 5.636400181405099 1 1 0
4877 287 15 0.06 6.119129363431974 4.6893855406092655 9.695069866765259 1 1 1
5134 302 17 0.435 7.309885742893485 5.582869897544448 4.552738224452824 1 0 0
5741 338 12 0.03 12.076437188954731 5.996657486731388 8.425117428956185 1 1 0
4418 260 15 0.06 3.869572669892859 7.725079167606284 10.44132614366558 1 0 0
5379 317 7 -0.7 11.673767530973622 7.996985385256286 11.883879159772173 1 0 0
4875 287 13 0.03 5.318714375515068 4.555549212817963 6.818064429015972 1 1 1
2798 165 10 0.06 9.881333243017988 9.34864846220998 5.0592153726898506 0 0 1
5130 302 13 0.03 5.843972654663384 8.049652406938367 4.185725095762001 1 0 0
4876 287 14 0.03 4.179253956175698 4.384923290878071 8.119666126848617 1 1 1
4878 287 16 0.06 7.233258570051408 4.7368944315345 8.313599380618275 1 1 1
643 38 14 0.03 10.865069589555247 4.670574095758919 12.974195151186027 0 1 0
4868 287 6 0.145 6.3011176973080705 4.28846721341615 8.70555930926896 1 1 1
3494 206 9 0.06 4.320083786609997 6.051254350230449 5.130295997459762 1 0 0
5388 317 16 0.06 12.062061200566443 6.138096387706838 11.091131115268283 1 0 0
4863 287 1 -0.7 4.122198561517431 8.18420502940099 6.522392568547138 1 1 1
5732 338 3 0.14 12.473281824656834 5.329510745776201 7.639586301680104 1 1 0
4870 287 8 0.435 3.8038755786726055 7.368819466295771 6.9231284149438315 1 1 1
634 38 5 0.14 10.289473535399917 4.100487901170902 12.238496976152984 0 1 0
2795 165 7 -0.7 11.113501141252662 15.9644052191505 6.6986382724401885 0 0 1
403 24 12 0.03 5.109176660624328 14.785801956018728 9.020220851277259 0 0 0
1064 63 10 0.06 12.315070252616664 4.016086041670907 4.017239385223654 0 0 1
1213 72 6 0.145 12.890321123731875 12.483016739602228 11.449115453432457 0 0 0
2797 165 9 0.06 8.694323445725928 10.42493232640662 5.8690650171724625 0 0 1
5131 302 14 0.03 7.550494565726894 8.015975093977055 4.394090816578889 1 0 0
5389 317 17 0.435 12.291954412449456 8.677613737138731 12.239587715804172 1 0 0
5128 302 11 0.03 7.153223059480958 10.70878861386053 3.894850399814925 1 0 0
1843 109 7 -0.7 6.8734516760101805 13.155858269871027 6.330973962891724 0 0 1
5745 338 16 0.06 9.571783815306524 6.860289685042018 4.551271588843934 1 1 0
209 13 5 0.14 9.140811424001885 12.823606214710361 11.594084909549533 0 0 1
405 24 14 0.03 3.8105919836264115 13.110900153826899 8.832436885101796 0 0 0
205 13 1 -0.7 8.05309837118751 9.397959663402371 8.428131119124366 0 0 1
5122 302 5 0.14 6.730268956950097 7.99561046485411 3.6302428885523645 1 0 0
1222 72 15 0.06 12.101051366735694 11.72657858567107 11.320953797477506 0 0 0
2789 165 1 -0.7 10.396934652225285 9.907962572082742 7.0110571892242355 0 0 1
212 13 8 0.435 8.848446935033973 9.556696352717998 7.932783449123543 0 0 1
219 13 15 0.06 10.268899526843223 11.206717277713349 12.62978365236387 0 0 1
1852 109 16 0.06 6.812124752503726 14.902905366587335 7.387810104727281 0 0 1
3718 219 12 0.03 11.287716587793959 16.075086628670025 9.386395564645953 1 0 0
210 13 6 0.145 9.59856238177677 12.06346858850688 12.765442306969934 0 0 1
215 13 11 0.03 9.437109379834197 11.783806238366752 9.267834838793235 0 0 1
206 13 2 0.145 7.633962392404985 10.525248042904323 9.147215020165834 0 0 1
5385 317 13 0.03 12.993393185070573 7.891680011954321 9.521986960633118 1 0 0
395 24 4 -0.4 5.018687811672184 13.44401711537268 10.494896970548947 0 0 0
402 24 11 0.03 6.693005930644086 14.109091207963075 9.47668197853492 0 0 0
1841 109 5 0.14 7.318394592045046 15.420673149349845 5.333311820684846 0 0 1
2796 165 8 0.435 11.321830855800544 9.744607164934855 6.862112100434152 0 0 1
1842 109 6 0.145 6.550839497728868 14.549342927704652 6.395629226899587 0 0 1
208 13 4 -0.4 8.164313186159603 12.048634999872668 10.882851081809594 0 0 1
1216 72 9 0.06 12.319593191117558 11.6875054583327 7.123266937758595 0 0 0
396 24 5 0.14 4.445857716865422 12.557597807912948 9.55579412357618 0 0 0
404 24 13 0.03 5.163825089711737 12.163503880541704 8.874899374613955 0 0 0
2794 165 6 0.145 10.823235298285535 14.656044811084875 6.989359448214443 0 0 1
2799 165 11 0.03 9.741205592461608 11.828740306793458 4.308396994265219 0 0 1
207 13 3 0.14 8.761190239087274 11.21671994088208 9.920669070190577 0 0 1
2804 165 16 0.06 9.808919720882448 14.749139292053199 7.374077045009563 0 0 1
400 24 9 0.06 4.89969298108072 16.094301565947596 11.192456078920145 0 0 0
2803 165 15 0.06 11.497307269268344 14.353500983393857 7.774118567375464 0 0 1
5124 302 7 -0.7 6.619930874968151 5.615799384859905 3.8789434057747796 1 0 0
1851 109 15 0.06 5.450082021045622 14.61658785362986 6.189714064274995 0 0 1
5606 330 13 0.03 5.336894442656218 4.002371511396173 12.964653546506508 1 1 0
1223 72 16 0.06 12.459429988887235 13.348561552159975 11.024047713089292 0 0 0
2805 165 17 0.435 11.090999307847316 16.08073581163992 5.7477954135702145 0 0 1
1853 109 17 0.435 7.820166941324978 13.117035742975295 6.494578015354236 0 0 1
5127 302 10 0.06 4.7348175272348065 10.374340284905006 4.353964212661578 1 0 0
2791 165 3 0.14 10.329680179116327 11.526925287977331 5.15619429349143 0 0 1
214 13 10 0.06 7.140253315074381 11.333665756446575 8.612839352403164 0 0 1
394 24 3 0.14 5.664986420949498 14.50034872163337 9.900628205297075 0 0 0
218 13 14 0.03 10.016805250609188 13.139129577908296 11.03241494170259 0 0 1
2801 165 13 0.03 10.349803894700969 14.108373886895823 4.930258644936639 0 0 1
2793 165 5 0.14 10.865790121557684 13.741803670796994 5.821843668177414 0 0 1
5731 338 2 0.145 12.910075863950281 3.925870048396053 8.168750242988438 1 1 0
216 13 12 0.03 9.48969148749325 10.482358887012253 10.44670522711558 0 0 1
5125 302 8 0.435 5.447798007210641 12.32765875901153 4.453117655454619 1 0 0
401 24 10 0.06 6.0113791425929595 15.030797629802064 11.901300569694278 0 0 0
5378 317 6 0.145 12.611975455719277 7.0003366577083375 11.450874851721458 1 0 0
2792 165 4 -0.4 10.219095673117312 12.522832376750287 6.1510353169496375 0 0 1
213 13 9 0.06 6.941382589103535 10.176668449417583 9.903857707944145 0 0 1
2800 165 12 0.03 11.240280536894183 11.510827963824232 4.628505659592392 0 0 1
217 13 13 0.03 8.547417352707043 13.693223762313078 11.96063810116953 0 0 1
2802 165 14 0.03 11.895139978356012 13.748837600544046 5.404496593529622 0 0 1
1849 109 13 0.03 8.378384414931865 15.2726702151849 5.224127367754444 0 0 1
2790 165 2 0.145 9.77665589809656 10.187287759395485 5.79624369721353 0 0 1
393 24 2 0.145 5.818572017582786 15.532204842042221 11.023587526485676 0 0 0
406 24 15 0.06 4.319740310208972 11.126075753782722 11.15756170034239 0 0 0
5118 302 1 -0.7 5.067050203687095 12.19768209067124 3.56782437040729 1 0 0
3720 219 14 0.03 12.906920249879747 15.481874166370286 11.533228442223509 1 0 0
397 24 6 0.145 3.6822450444168306 11.554088296674406 10.352802672541413 0 0 0
642 38 13 0.03 9.366621299336696 3.8005470132977126 12.75914834070052 0 1 0
3495 206 10 0.06 3.683991229826828 5.428575566185357 3.551774922285361 1 0 0
5272 311 2 0.145 8.183088056125312 8.126927885953311 19.751035295892557 1 0 0
5273 311 3 0.14 7.862640961122015 6.676523119717972 20.22677156707174 1 0 0
5279 311 9 0.06 8.582063853422316 8.708972678604205 20.577084489513616 1 0 0
5282 311 12 0.03 7.145291080912159 6.759458201667178 21.081353715834325 1 0 0
5281 311 11 0.03 7.276484740692528 6.229087775512806 19.43329329682477 1 0 0
5271 311 1 -0.7 7.159984069305125 8.861944028988255 19.052911078627144 1 0 0
5280 311 10 0.06 9.005779162221026 8.132812808006571 19.103003982918924 1 0 0
5278 311 8 0.435 7.047155855955662 8.31887808868093 18.231000905281718 1 0 0
5274 311 4 -0.4 9.114451739078616 5.984031029990895 20.635163046231437 1 0 0
5600 330 7 -0.7 6.656151339959961 5.013211135991172 15.865232005086682 1 1 0
269 16 14 0.03 11.245050721513755 6.632439933689145 19.117519226427063 0 0 0
260 16 5 0.14 11.753519439836136 6.070689299591498 18.27152569147603 0 0 0
5243 309 7 -0.7 6.032529266997287 7.259067352967147 17.223119655958538 1 0 0
5253 309 17 0.435 6.143288289199726 6.463529812226016 16.66220942076486 1 0 0
5242 309 6 0.145 4.674987055148734 7.709925425090171 17.17915974318536 1 0 0
261 16 6 0.145 10.62843248091568 5.224353949244265 17.752041909363548 0 0 0
5599 330 6 0.145 6.165970640994024 5.164043985759516 14.561641275725057 1 1 0
270 16 15 0.06 9.829275404365761 5.86457086484464 17.358811337484422 0 0 0
3382 199 16 0.06 11.436391881195846 8.38065220761852 14.943511198469007 1 0 0
5283 311 13 0.03 8.256747711758976 4.218844838235089 20.973561357948036 1 0 0
5251 309 15 0.06 4.508061565302589 8.563711423633032 17.892415309384425 1 0 0
5252 309 16 0.06 4.477963301962804 7.889889992323327 16.116904892638587 1 0 0
268 16 13 0.03 11.983570649835853 6.877162947036365 17.544243475770905 0 0 0
5275 311 5 0.14 8.879528135201026 4.946631150670534 21.552674453209256 1 0 0
3372 199 6 0.145 10.570115727379376 9.023570080284518 15.171769471861724 1 0 0
4915 290 2 0.145 12.387424245728432 15.695790227405544 16.71371020758851 1 1 0
3371 199 5 0.14 9.471619887993088 8.748067990602644 14.236673387514003 1 0 0
3370 199 4 -0.4 8.429814122907029 9.635535554925024 14.740755834877055 1 0 0
5285 311 15 0.06 10.818229232222713 4.068880300775521 21.136317750515556 1 0 0
3383 199 17 0.435 9.16719079617155 9.268596358603714 16.299766322579437 1 0 0
3373 199 7 -0.7 9.904883551290492 8.721030460067517 16.384073651867464 1 0 0
5608 330 15 0.06 5.460781414624927 5.99842612517055 14.574314388006766 1 1 0
271 16 16 0.06 10.323555553381103 4.687338505775561 18.665679889547192 0 0 0
29 2 12 0.03 8.13381640702994 12.67969874670643 15.753290928226544 0 0 0
4929 290 16 0.06 12.726783714707704 10.01322158908214 17.210148109534067 1 1 0
4658 274 17 0.435 10.824717490377042 11.995134144417078 20.69512710825481 1 0 0
3381 199 15 0.06 10.851323469137249 10.093397680835288 15.093457262631105 1 0 0
4524 267 2 0.145 4.066589123262588 13.811840285056027 14.35691778034767 1 0 0
3375 199 9 0.06 5.746033372827852 10.348872915880337 15.646498642845335 1 0 0
23 2 6 0.145 5.4623218598732555 12.10479153177204 18.80058002819857 0 0 0
520 31 10 0.06 10.718666590502217 10.058219262354061 20.631852698176477 0 1 0
2983 176 8 0.435 3.735640972645889 15.61058490561741 16.618767240481237 0 0 -1
3380 199 14 0.03 9.114344218963247 7.700220418621865 14.311838788119847 1 0 0
4655 274 14 0.03 11.170632565525288 15.082695296496569 21.661975647514975 1 0 0
512 31 2 0.145 11.533163960260431 9.73700591810768 21.153696026893822 0 1 0
3378 199 12 0.03 6.729840499343133 8.490058686729842 14.310462007826048 1 0 0
4533 267 11 0.03 3.778319981596107 15.849099971423293 13.767998945240006 1 0 0
5598 330 5 0.14 5.456784098652056 3.8931679641608286 14.059238193998475 1 1 0
34 2 17 0.435 6.219594327128706 10.375416920123923 19.58236813178177 0 0 0
48 3 14 0.03 6.600140835354221 10.143550024957916 22.142655060716475 0 0 0
5610 330 17 0.435 7.2027014306592445 4.238374768675107 15.84573263434089 1 1 0
5249 309 13 0.03 3.76088247057952 5.810742780988728 16.937804513502627 1 0 0
3369 199 3 0.14 7.122933753174924 9.523177280022647 14.136075713037604 1 0 0
519 31 9 0.06 12.058120667690385 8.949393024623674 20.557972140057366 0 1 0
5287 311 17 0.435 10.669182466754963 6.303857911944325 22.27562443422789 1 0 0
272 16 17 0.435 12.036091925406769 4.068897521552838 17.185808373207156 0 0 0
5597 330 4 -0.4 4.2068502562277095 3.967340489617533 14.608962937352429 1 1 0
259 16 4 -0.4 12.864999186130984 5.3617984081242325 18.77208967543811 0 0 0
220 13 16 0.06 8.810507899857797 11.805787525066707 13.450057858935914 0 0 1
262 16 7 -0.7 11.172767659881396 4.360813676476917 16.79634775109166 0 0 0
4918 290 5 0.14 12.051684295663497 12.047970193264828 16.696556110061394 1 1 0
1224 72 17 0.435 12.283409274499416 12.92308053357832 13.157940065618936 0 0 0
4648 274 7 -0.7 10.196607632682262 12.278615874160748 20.023410090210284 1 0 0
26 2 9 0.06 6.656224720407753 14.735154630505768 14.881371759108386 0 0 0
4924 290 11 0.03 11.454766950816886 14.169369265316933 15.407249546377008 1 1 0
4532 267 10 0.06 4.992493151746891 13.976918311697123 13.812135799391555 1 0 0
31 2 14 0.03 6.917362390091938 11.160294520561397 17.46517971024738 0 0 0
4926 290 13 0.03 11.825471929680248 11.95437454220818 15.648079556311224 1 1 0
4916 290 3 0.14 11.732012850096986 14.35748032710862 16.42436986371055 1 1 0
21 2 4 -0.4 6.605509962425835 13.09440348542425 17.01422437357158 0 0 0
24 2 7 -0.7 5.704630073518476 11.165327788408966 19.847094884390636 0 0 0
3368 199 2 0.145 6.050419139403949 10.499204850307285 14.613447056174024 1 0 0
4917 290 4 -0.4 12.616741869936574 13.33467555547011 16.99802680763254 1 1 0
4523 267 1 -0.7 4.27169390725784 13.989567976425779 15.738733664673884 1 0 0
511 31 1 -0.7 12.356671637691779 10.887318423437812 20.95194040957669 0 1 0
4530 267 8 0.435 5.114379249737599 13.589102284878676 16.020789399020195 1 0 0
32 2 15 0.06 4.63250542627749 11.727240576056218 18.186456005888886 0 0 0
2981 176 6 0.145 6.828352819353251 15.8057341289025 19.174020664876466 0 0 -1
5276 311 6 0.145 10.231163857090834 4.406787124899621 21.938259551814046 1 0 0
27 2 10 0.06 7.854521313230182 15.653371173292435 15.969133352353245 0 0 0
864 51 14 0.03 6.603085669524127 4.430332117795973 18.551874395268594 0 0 0
3379 199 13 0.03 9.802006035041153 9.054732323325519 13.214848168553164 1 0 0
5241 309 5 0.14 3.6560037453165 6.591538247399969 17.575273428406952 1 0 0
33 2 16 0.06 5.152989278862265 13.054073355230877 19.25424608264042 0 0 0
518 31 8 0.435 12.647160845956805 10.848162757755322 20.00794731067959 0 1 0
22 2 5 0.14 6.813767577488884 12.118159938479625 18.02795748218412 0 0 0
221 13 17 0.435 10.082158597835484 13.516905040641419 13.90167199450529 0 0 1
5609 330 16 0.06 6.977157898227383 5.399319214796044 13.885172426788982 1 1 0
140 9 4 -0.4 3.9579469250187675 6.758983418127425 22.370322738593106 0 0 0
4925 290 12 0.03 10.781423509827354 14.298139432482989 16.95226132401808 1 1 0
25 2 8 0.435 8.744909828753546 15.545742697640828 14.121920887157474 0 0 0
20 2 3 0.14 7.750726436321152 13.438599582433582 16.320390349319304 0 0 0
211 13 7 -0.7 10.523954353856933 12.792457509612783 13.538875156821494 0 0 1
4646 274 5 0.14 11.191644965988889 14.009568487716177 21.404781672475597 1 0 0
2980 176 5 0.14 5.3830608708934635 16.024310618739328 19.451179959745566 0 0 -1
51 3 17 0.435 5.765680679986399 12.133404761283375 21.501976879468707 0 0 0
4647 274 6 0.145 9.996149141452516 13.619026248073716 20.44865872925521 1 0 0
152 9 16 0.06 5.625842228746686 4.948116062458379 21.66485007635156 0 0 0
2988 176 13 0.03 5.170013417460057 15.797765753909639 20.46356662516908 0 0 -1
2991 176 16 0.06 7.0966283790274165 14.778576941511227 19.20193420390249 0 0 -1
4654 274 13 0.03 12.086442119421626 13.853860347229713 20.754317146265816 1 0 0
4657 274 16 0.06 8.97337769697587 13.740326884784755 20.88999835006988 1 0 0
5250 309 14 0.03 3.656743404765315 6.3634176504720905 18.653824477383 1 0 0
28 2 11 0.03 8.56457310452505 13.668054020626014 16.98718900719228 0 0 0
19 2 2 0.145 7.641239452262947 14.713196066116282 15.442561617425978 0 0 0
2979 176 4 -0.4 4.670871118823662 15.30424635375933 18.55432027936257 0 0 -1
41 3 7 -0.7 5.937486795599123 12.796764692955408 22.11116107417174 0 0 0
18 2 1 -0.7 8.712736460439546 14.69920383927342 14.55589197191163 0 0 0
4656 274 15 0.06 9.924898530835943 14.220820828934725 19.55692263260795 1 0 0
2992 176 17 0.435 7.321096033935698 15.864386391849953 21.10971296918506 0 0 -1
4927 290 14 0.03 11.030001406795341 12.008641387496375 17.10943560450647 1 1 0
30 2 13 0.03 7.636262391500327 12.303013806243543 18.642237689806095 0 0 0
3367 199 1 -0.7 4.98476398166623 10.361991958844959 13.612047993108742 1 0 0
4922 290 9 0.06 12.434308131135897 15.764829404057041 17.815745678330508 1 1 0
3376 199 10 0.06 6.389282642065567 11.517230877330707 14.593986079365148 1 0 0
4531 267 9 0.06 3.7014644810731623 12.805891085467183 14.053365754164895 1 0 0
4216 248 17 0.435 6.516835153292368 14.295643458989364 22.426445897347598 1 0 0
267 16 12 0.03 12.919329718956064 6.225333125873968 20.688031419710953 0 0 0
3374 199 8 0.435 5.29724234375581 9.620765614458072 13.180512434839727 1 0 0
857 51 7 -0.7 3.7968329892303405 3.6014850510235252 18.971402808181814 0 0 0
4417 260 14 0.03 3.742903360937025 6.448575709349841 13.233340565755494 1 0 0
866 51 16 0.06 4.620239349480713 3.8145880857710783 17.076499115996228 0 0 0
3377 199 11 0.03 7.307838618087466 9.728771311131794 13.090502874273223 1 0 0
5284 311 14 0.03 8.281629256385653 5.368711221291129 22.36723122006873 1 0 0
36 3 2 0.145 6.5171007647851695 8.459785927555505 26.022902577727002 0 0 0
515 31 5 0.14 9.725331691045216 8.198824511065805 24.012924247836533 0 1 0
37 3 3 0.14 6.066720879083542 8.787548567385105 24.618450667440694 0 0 0
516 31 6 0.145 10.659334504497519 8.213080042772063 25.253700556377968 0 1 0
517 31 7 -0.7 9.852497848911177 8.32085101699387 26.438538149774647 0 1 0
527 31 17 0.435 9.317143369576439 7.463906223873494 26.46404408996125 0 1 0
526 31 16 0.06 11.234621103388742 7.287656022339327 25.317570125350496 0 1 0
44 3 10 0.06 6.340508551039074 9.257916054116643 26.736567097576362 0 0 0
35 3 1 -0.7 6.015735635120031 7.206236718866387 26.39537059590406 0 0 0
924 55 6 0.145 10.198913856197443 8.032357964347653 29.643863917112967 0 0 0
43 3 9 0.06 7.586185631707354 8.435479168358594 26.05214199801463 0 0 0
923 55 5 0.14 8.798648152179327 7.384975341414027 29.680251357881374 0 0 0
525 31 15 0.06 11.172518300955302 9.167502567235422 25.226062001503664 0 1 0
5781 341 1 -0.7 8.50940983150172 6.173518834834853 26.4231204073903 1 1 0
934 55 16 0.06 10.906203143404134 7.477250130105679 29.105637626846125 0 0 0
5788 341 8 0.435 7.578559910992987 6.359589013548968 26.434709399761918 1 1 0
4207 248 8 0.435 4.151928363834765 12.919691582111499 22.92196849911707 1 0 0
932 55 14 0.03 8.505496642046506 7.290303106708725 28.663241869900755 0 0 0
523 31 13 0.03 9.02347850721785 7.41981453226688 24.141743631886673 0 1 0
46 3 12 0.03 6.5065818483763564 7.901410112426631 24.048560138332732 0 0 0
922 55 4 -0.4 8.848300387148402 6.1409733289572825 30.391030221613008 0 0 0
933 55 15 0.06 10.250479024472346 9.053751490607285 29.343620219493527 0 0 0
5782 341 2 0.145 8.716314759849798 4.887697544176874 25.89732617209912 1 1 0
921 55 3 0.14 7.588679466831698 5.649390344219174 30.706742981646915 0 0 0
930 55 12 0.03 6.911706626234993 5.86216295068459 29.94386707327317 0 0 0
5790 341 10 0.06 8.438506961331743 4.918901060939129 24.82672623080876 1 1 0
5789 341 9 0.06 9.811766270692125 4.717362696438978 25.901262970235127 1 1 0
42 3 8 0.435 5.0592178335770805 7.10795281084146 26.26980428490544 0 0 0
931 55 13 0.03 8.19633492539269 8.112496339082043 30.20037918852891 0 0 0
920 55 2 0.145 7.599957625826173 4.066803501287094 30.90061660206615 0 0 0
925 55 7 -0.7 10.644776406961459 7.877352105065058 30.963534178010537 0 0 0
5277 311 7 -0.7 10.97250204104032 5.470426018210775 22.508555242221675 1 0 0
524 31 14 0.03 9.068668380164066 9.082030238067581 24.107970044356243 0 1 0
38 3 4 -0.4 6.730520968232266 9.968689195622169 24.23334876399529 0 0 0
2123 125 15 0.06 12.953796945699061 10.242680466284819 29.37571030406346 0 0 0
514 31 4 -0.4 10.43998560916404 8.25262508007254 22.761371455850117 0 1 0
5830 343 16 0.06 8.51521403378642 10.463739151108951 28.24428344633162 1 1 0
929 55 11 0.03 7.215623445282833 5.9592564928804865 31.68035050351517 0 0 0
45 3 11 0.03 4.975021998818662 8.792823371398793 24.53272656646782 0 0 0
2474 146 9 0.06 12.48519715499542 5.674711635053701 28.15027499520535 0 1 0
56 4 5 0.14 3.6282343602264433 12.040088184356167 28.51460569099864 0 0 0
926 55 8 0.435 5.834506640015359 3.725892167379185 30.181285629786213 0 0 0
919 55 1 -0.7 6.2664043588681775 3.69452751338866 30.98641320894886 0 0 0
2598 153 14 0.03 4.564300023515882 8.186968687947248 31.084461145226914 1 0 0
143 9 7 -0.7 5.614385524559857 3.789414584437931 23.21769892845398 0 0 0
5753 339 7 -0.7 4.901763880207197 3.904259745345146 28.714625656150382 1 1 0
150 9 14 0.03 4.037473142245696 5.7594209967393155 24.292155907978472 0 0 0
935 55 17 0.435 10.29502452794469 7.000379870417679 31.217237777025804 0 0 0
5821 343 7 -0.7 7.44925159464691 12.140464160348648 28.446517543953398 1 1 0
2259 133 15 0.06 10.331403265335197 3.8567747855936134 31.399023662466323 0 1 0
49 3 15 0.06 7.664228394632365 12.206602427861455 22.780523431009705 0 0 0
2475 146 10 0.06 12.51658223765438 4.4769162421155855 29.416378568309593 0 1 0
4645 274 4 -0.4 11.274274154787218 13.257825377140167 22.59836859700172 1 0 0
141 9 5 0.14 4.090564361410605 5.5900204623071605 23.22209155126923 0 0 0
5822 343 8 0.435 9.449067460032037 15.511193318738934 26.95399704742375 1 1 0
5791 341 11 0.03 6.890771693936109 3.6886602517819598 26.347993028966258 1 1 0
2776 164 5 0.14 6.215164337405976 15.681466028703388 29.769383920072478 0 0 0
4205 248 6 0.145 6.141798780695357 15.662865883200036 23.718388762282682 1 0 0
5286 311 16 0.06 10.198392140359342 3.6217628344717046 22.593921338273752 1 0 0
2597 153 13 0.03 4.260773412220036 9.873441497859062 30.956813579015407 1 0 0
2777 164 6 0.145 6.5376162162071 15.940837309508568 28.30596251608411 0 0 0
5824 343 10 0.06 10.388066615905846 15.646145381149848 24.403988918158262 1 1 0
39 3 5 0.14 6.184583592396402 10.614926163992228 23.088486864864684 0 0 0
40 3 6 0.145 6.6325457956314295 12.084646039122243 23.067774153815762 0 0 0
151 9 15 0.06 6.186009034934115 5.614883335521007 23.24100251118554 0 0 0
57 4 6 0.145 4.062007465960537 12.174974191596627 26.9989712280593 0 0 0
4206 248 7 -0.7 6.8738975392082775 15.167314947725785 22.64879999202945 1 0 0
2595 153 11 0.03 4.308127521861923 9.414487753407437 28.46313222362328 1 0 0
142 9 6 0.145 5.3930520603854495 5.035343124436833 22.801566815574866 0 0 0
3274 193 10 0.06 12.463490769740186 5.700034765157736 24.85166934159598 0 1 0
2784 164 13 0.03 6.033506653409751 14.58378908671266 29.96094490313695 0 0 0
50 3 16 0.06 6.403591561140308 12.575328976590006 24.028874839568303 0 0 0
5817 343 3 0.14 9.387738036716122 13.869983793257642 25.268437739370395 1 1 0
2118 125 10 0.06 9.939449535919941 14.344159827525433 30.967618749779035 0 0 0
47 3 13 0.03 5.04013126961143 10.576154479599342 23.077193044502817 0 0 0
2112 125 4 -0.4 11.567179340895402 12.713395215476206 29.740455365525698 0 0 0
5818 343 4 -0.4 9.277080255653381 13.201689005101043 26.507389930329055 1 1 0
2117 125 9 0.06 9.017008300756466 13.788179716974092 29.686540578499805 0 0 0
2109 125 1 -0.7 9.73888912032565 15.820202694111595 29.63155132758897 0 0 0
522 31 12 0.03 12.182699102027058 9.045339884524356 22.891762928948516 0 1 0
5819 343 5 0.14 8.560455071635836 12.013746277617445 26.50727416476791 1 1 0
928 55 10 0.06 8.187319363066734 3.8383880555052987 31.760416753568382 0 0 0
2786 164 15 0.06 7.520477633709249 15.475552128195245 27.99205035467475 0 0 0
2467 146 2 0.145 12.81067388777683 4.681609242135578 28.413333661582737 0 1 0
5820 343 6 0.145 8.588140913685763 11.52722034889897 27.963365238023087 1 1 0
68 4 17 0.435 4.912560995699292 13.860837112310456 27.341666754359768 0 0 0
5828 343 14 0.03 7.579860486017699 12.295582890542082 26.144092064043836 1 1 0
2120 125 12 0.03 11.143640089234747 14.077516742210289 28.249980047795056 0 0 0
2110 125 2 0.145 9.887287027280593 14.444008089083162 29.861614733918568 0 0 0
5825 343 11 0.03 9.797795862129384 13.162493563291191 24.53806433472507 1 1 0
5826 343 12 0.03 8.44533490468664 14.25740813713355 24.924722782757872 1 1 0
2477 146 12 0.03 11.00446649653606 3.637649826250874 27.84156909121867 0 1 0
5831 343 17 0.435 6.912161620124485 12.381714522614677 27.696218180757757 1 1 0
4204 248 5 0.14 4.698907608513352 16.053058127968246 23.438501370366332 1 0 0
5829 343 15 0.06 9.538784278653605 11.75510275048591 28.461992077479795 1 1 0
2261 133 17 0.435 12.43178377328544 5.131079184845888 31.614426953288287 0 1 0
4650 274 9 0.06 11.84585521643644 12.36134479175277 25.153432332552367 1 0 0
2111 125 3 0.14 11.17982283319547 13.991149822045244 29.295595287111233 0 0 0
5816 343 2 0.145 10.369489082773256 15.139381737096521 25.36897106346721 1 1 0
5823 343 9 0.06 11.373481296500454 15.005737220079402 25.652105067438807 1 1 0
2119 125 11 0.03 11.905675998587924 14.663966667183717 29.66591518494247 0 0 0
4214 248 15 0.06 6.139551456012276 14.901370150879961 24.526201510166317 1 0 0
58 4 7 -0.7 5.077503467798976 13.070314900822318 26.82898120673763 0 0 0
2778 164 7 -0.7 5.350256142473523 15.480415049482279 27.780638245696533 0 0 0
5827 343 13 0.03 9.018350719605845 11.320272306292274 25.79486969875794 1 1 0
3272 193 8 0.435 12.485383180715873 4.702819073457931 23.001225430638076 0 1 0
5752 339 6 0.145 3.582086458530109 4.417257781607482 28.867841844575754 1 1 0
4203 248 4 -0.4 4.065927543949902 14.889615839406781 22.82668477699894 1 0 0
513 31 3 0.14 11.274482214621848 9.397124364907572 22.591027177370258 0 1 0
64 4 13 0.03 4.377535801582621 11.666034244377284 29.22026079664332 0 0 0
521 31 11 0.03 10.876607836109022 10.207748573168654 23.232610689122513 0 1 0
3449 203 15 0.06 5.759706189069854 11.66625118861498 30.950560067473752 0 0 0
2113 125 5 0.14 12.960932339666199 12.456431670129124 29.502083118276328 0 0 0
5783 341 3 0.14 7.942717733683857 3.779794341088336 26.719973777417238 1 1 0
5792 341 12 0.03 7.973098929088241 4.107968859097516 27.78902452275217 1 1 0
2476 146 11 0.03 12.273549860122726 3.7924177875487066 26.53348743751821 0 1 0
4653 274 12 0.03 12.311098531027811 14.49940053604134 23.64594627084612 1 0 0
4644 274 3 0.14 12.468209328596615 13.470198003664468 23.3087733571126 1 0 0
2468 146 3 0.14 12.090345119284821 3.6125103949955455 27.576862142641932 0 1 0
2596 153 12 0.03 4.378051741851971 7.6583750619154545 28.689686476343375 1 0 0
2788 164 17 0.435 4.6238483198045035 16.061768411336853 28.093164207058773 0 0 0
2589 153 5 0.14 3.7233651998909094 8.926235112741889 31.00336277062451 1 0 0