LAMMPS data file via write_data, version 29 Sep 2021, timestep = 1000000

5831 atoms
17 atom types
5488 bonds
16 bond types
9604 angles
28 angle types
9947 dihedrals
29 dihedral types
3087 impropers
9 improper types

0.4346648248703581 40.56533517512521 xlo xhi
0.4346648248703581 40.56533517512521 ylo yhi
0.4346648248703581 40.56533517512521 zlo zhi

Masses

1 12.011
2 12.011
3 12.011
4 15.999
5 15.999
6 12.011
7 12.011
8 1.008
9 1.008
10 1.008
11 1.008
12 1.008
13 1.008
14 1.008
15 1.008
16 1.008
17 1.008

Pair Coeffs # lj/cut/coul/long/omp

1 0.066 3.5
2 0.066 3.5
3 0.105 3.75
4 0.21 2.96
5 0.17 3
6 0.066 3.5
7 0.066 3.5
8 0.03 2.5
9 0.03 2.5
10 0.03 2.5
11 0.03 2.5
12 0.03 2.5
13 0.015 2.42
14 0.015 2.42
15 0.03 2.5
16 0.03 2.5
17 0.03 2.5

Bond Coeffs # harmonic/omp

1 268 1.529
2 317 1.522
3 570 1.229
4 214 1.327
5 320 1.41
6 268 1.529
7 340 1.09
8 340 1.09
9 340 1.09
10 340 1.09
11 340 1.09
12 340 1.09
13 340 1.09
14 340 1.09
15 340 1.09
16 340 1.09

Angle Coeffs # harmonic/omp

1 63 111.1
2 80 120.4
3 81 111.4
4 83 116.9
5 50 109.5
6 37.5 110.7
7 37.5 110.7
8 37.5 110.7
9 37.5 110.7
10 37.5 110.7
11 35 109.5
12 35 109.5
13 37.5 110.7
14 37.5 110.7
15 37.5 110.7
16 37.5 110.7
17 33 107.8
18 33 107.8
19 83 123.4
20 33 107.8
21 33 107.8
22 35 109.5
23 33 107.8
24 33 107.8
25 35 109.5
26 33 107.8
27 37.5 110.7
28 33 107.8

Dihedral Coeffs # opls/omp

1 -0.277 1.228 -0.694 0
2 4.669 5.124 0 0
3 -1.22 -0.126 0.422 0
4 0 0 -0.076 0
5 0 0 0.468 0
6 0 0 0.3 0
7 0 0 -0.553 0
8 0 0 -0.076 0
9 0 0 0.468 0
10 0 5.124 0 0
11 0 0 0.132 0
12 0 0 0.198 0
13 0 0 0.3 0
14 0 0 0.198 0
15 0 0 0 0
16 0 0 0.132 0
17 0 0 0.3 0
18 0 0 0.3 0
19 0 0 0.3 0
20 0 0 0.3 0
21 0 0 -0.076 0
22 0 0 0.468 0
23 0 0 0.3 0
24 0 0 0.3 0
25 0 0 0 0
26 0 0 0.3 0
27 0 0 0.3 0
28 0 0 0.3 0
29 0 0 0.3 0

Improper Coeffs # cvff/omp

1 10.5 -1 2
2 0 -1 2
3 0 -1 2
4 0 -1 2
5 0 -1 2
6 0 -1 2
7 0 -1 2
8 0 -1 2
9 0 -1 2

Atoms # full

4270 252 3 0.51 2.5777518640849637 2.473277815949129 8.285257968871537 1 -2 2
2957 174 16 0.06 2.602145377386495 9.414265774524873 3.10710919339328 -1 0 1
4279 252 12 0.06 1.4746998481954448 2.6290931403483415 6.487853573478696 1 -2 2
707 42 10 0.06 1.9689495782997668 9.077877273727433 8.951738446495657 1 0 1
698 42 1 -0.18 2.3948488826873473 9.77404321062257 8.240212388598263 1 0 1
5380 317 8 0.06 2.910859800036867 5.352627358044395 2.78788055090882 1 0 0
5618 331 8 0.06 5.175013034636754 8.538525748655355 3.7198079880289656 1 2 -1
5373 317 1 -0.18 3.0435118846497287 4.289225866564549 2.9712835308839884 1 0 0
5375 317 3 0.51 3.3491041039826284 4.035217294268453 0.5622423684055495 1 0 0
5383 317 11 0.06 3.1283495767103155 2.392631474739554 1.9115115993256393 1 0 0
5611 331 1 -0.18 5.0940936092277305 7.711460722966418 3.0386750632956403 1 2 -1
4272 252 5 -0.33 2.1772114835154373 3.7286541501113253 8.564638369007554 1 -2 2
5384 317 12 0.06 4.687405849471482 3.236118349971093 2.1136339326539435 1 0 0
699 42 2 -0.12 2.3775018868215514 9.185148264144827 6.827841213018979 1 0 1
709 42 12 0.06 2.5672853104193436 9.880783982166337 6.050445301593069 1 0 1
5825 343 11 0.06 4.973886057475071 6.4008565547323775 8.044374263752573 0 0 2
2958 174 17 0.06 1.6864838874024521 10.404093129285267 1.9393212018693204 -1 0 1
64 4 13 0.03 0.4554117102653362 5.662554650234312 2.2679303585694277 -1 1 1
702 42 5 -0.33 0.49781146164360207 7.83896743224549 7.364401134791686 1 0 1
708 42 11 0.06 3.0705724604431213 8.339867443432963 6.768987494935986 1 0 1
4271 252 4 -0.43 3.435878344675219 1.8806405578322103 8.899458933390132 1 -2 2
4268 252 1 -0.18 2.7012539284453205 0.786637425976968 6.321010990825063 1 -2 2
4281 252 14 0.03 3.322109580324395 3.7999646122312387 10.348467525475709 1 -2 2
714 42 17 0.06 0.7468246919776866 5.884846739866804 5.7069619558202 1 0 1
4278 252 11 0.06 0.9407404402357835 1.1913362069800522 7.545508552349908 1 -2 2
5622 331 12 0.06 5.320887761188037 8.722566172463415 1.143637936341336 1 2 -1
4275 252 8 0.06 2.697041571671348 1.0295389119628693 5.299044271701476 1 -2 2
701 42 4 -0.43 0.5546151886649238 8.710285808862361 5.2576646000315925 1 0 1
3398 200 15 0.06 4.8501948802279955 0.8034245746300352 2.9995041012477133 0 0 -1
5620 331 10 0.06 4.054441296969182 7.42938885744949 2.888795428215501 1 2 -1
5374 317 2 -0.12 3.579911040059915 3.368850803328524 1.8794058856132028 1 0 0
5382 317 10 0.06 2.0308744323540013 3.8840059185432625 3.214183860953427 1 0 0
4274 252 7 -0.18 2.307916738266476 5.7087579424537305 9.950654759106671 1 -2 2
4269 252 2 -0.12 1.8496097463865144 1.769282716465935 7.147377643981867 1 -2 2
706 42 9 0.06 3.434084715741877 9.98063562972952 8.506611599022772 1 0 1
700 42 3 0.51 1.0262318713212037 8.644392504137029 6.385120142313173 1 0 1
4273 252 6 0.19 2.97611551335574 4.400654716564732 9.513792245081191 1 -2 2
4280 252 13 0.03 3.944331170845109 4.54761033222108 9.106718859623097 1 -2 2
58 4 7 -0.18 0.5682733278366284 7.519451692788026 1.2104164843242888 -1 1 1
5381 317 9 0.06 3.7011607856528776 4.078774208900019 3.882855764318528 1 0 0
4283 252 16 0.06 1.9817729947414828 6.342919988471369 9.065718147106166 1 -2 2
66 4 15 0.06 1.452185117310949 7.905105608012275 1.7148120692272395 -1 1 1
4277 252 10 0.06 3.758595870842004 0.8694486822387852 6.503674205248725 1 -2 2
4538 267 16 0.06 5.4426118890472654 9.120585678686801 10.433014827963657 1 -1 -1
4282 252 15 0.06 1.4265973662692206 5.3689333660725 10.467113204276307 1 -2 2
3235 191 5 -0.33 3.0784198512390564 2.515807636647111 12.45474255733329 1 2 0
3678 217 6 0.19 1.5822158699450344 9.411341623915431 12.975170788872848 0 0 1
2350 139 4 -0.43 5.08479300327864 8.831065758119271 16.024870149937016 0 1 2
3241 191 11 0.06 5.027627739974508 4.0977250042834825 12.301825324547245 1 2 0
2348 139 2 -0.12 4.8567904147404874 6.48586166026351 15.726102435536037 0 1 2
2355 139 9 0.06 2.968990760147902 5.932138961345841 14.904208875791308 0 1 2
2347 139 1 -0.18 3.4920371955047576 6.795976899700469 15.186074970035513 0 1 2
3233 191 3 0.51 4.02743034747918 2.6315321148772957 13.478744316837009 1 2 0
3685 217 13 0.03 2.4598176654334876 8.807241508311959 12.931316413661033 0 0 1
5719 337 7 -0.18 2.0181062174188718 9.335306558069346 18.188022647838775 1 1 -1
4284 252 17 0.06 2.977775130607239 6.264058733361037 10.573930571503803 1 -2 2
5729 337 17 0.06 2.531482241402301 9.37086207021802 17.23874911109986 1 1 -1
2780 164 9 0.06 5.381537121549362 0.47803418356067245 19.989142603310743 0 1 0
5725 337 13 0.03 3.339962351189787 8.078094980512889 19.213253228859163 1 1 -1
5721 337 9 0.06 2.535969219379651 3.711645975059423 17.38897586622701 1 1 -1
5720 337 8 0.06 1.5309278186221258 3.8300739767766436 18.97128065147954 1 1 -1
3237 191 7 -0.18 1.858606905923736 0.4552492865098769 12.21841696313034 1 2 0
5714 337 2 -0.12 0.7685439922195518 5.045541814011186 17.34793545717543 1 1 -1
2358 139 12 0.06 4.62445121467582 5.837337164363648 16.62806938265314 0 1 2
3236 191 6 0.19 1.8258198532699923 1.9182767119873607 12.72327576774159 1 2 0
5718 337 6 0.19 2.3608710950368 8.056832600154701 18.970302839744363 1 1 -1
4537 267 15 0.06 4.385577141580657 7.94917352405611 11.006747033348399 1 -1 -1
1844 109 8 0.06 1.8269264456895258 0.5400860808233254 15.634040925940427 1 1 1
3234 191 4 -0.43 3.8704953556118302 2.2262807332911208 14.610710133269547 1 2 0
3244 191 14 0.03 1.4959564653541662 1.8783787941398356 13.841835677737148 1 2 0
3263 192 16 0.06 4.9791173396807835 3.3524897660603803 17.14886786526366 0 -2 -1
5717 337 5 -0.33 2.047384831350875 6.906530428743235 18.225690965006493 1 1 -1
3677 217 5 -0.33 0.5967900490758711 8.805626656461914 12.093992504724783 0 0 1
3243 191 13 0.03 1.0942240472460052 2.482622553500525 12.155190838978935 1 2 0
2354 139 8 0.06 2.960519929211082 7.243963115825666 16.033382416641125 0 1 2
5724 337 12 0.06 1.0318621657547655 5.244750658623653 16.284961613013515 1 1 -1
3686 217 14 0.03 1.2158097168494044 9.282861252128844 13.956349550202342 0 0 1
5726 337 14 0.03 1.7962064901876227 8.157782116370996 19.906470355736726 1 1 -1
2356 139 10 0.06 3.5285060923303435 7.532025121376466 14.354845671938474 0 1 2
4539 267 17 0.06 4.424051817641107 9.459792347472126 11.743790918013948 1 -1 -1
5713 337 1 -0.18 1.5206384506302315 3.8072072054115855 17.86802535517114 1 1 -1
5722 337 10 0.06 0.9313845699695471 2.9800339794556625 17.42614752217156 1 1 -1
5715 337 3 0.51 0.8368967178146789 6.355211898974836 18.24110886829755 1 1 -1
3232 191 2 -0.12 5.220272649254287 3.5069227271049876 13.165661368225164 1 2 0
3242 191 12 0.06 5.3422344727668 4.169516510542514 13.937038090869407 1 2 0
4529 267 7 -0.18 5.065799355453128 8.679042067752546 11.321060565091328 1 -1 -1
5728 337 16 0.06 1.021485153778638 9.461138592330263 17.88940561725441 1 1 -1
2562 151 12 0.06 4.4930707098863545 9.648995986151716 20.37622365302381 1 2 0
5727 337 15 0.06 2.408223111502466 10.197765101089036 18.832920210996914 1 1 -1
4536 267 14 0.03 5.435836950526075 7.427498720640153 13.039849678665242 1 -1 -1
4318 254 17 0.06 1.0400054564491625 2.5438300214738563 25.835756470570292 1 0 0
5206 307 4 -0.43 3.197610724948493 6.792421187401324 25.936811099143068 0 1 -1
5213 307 11 0.06 2.8971872166860115 8.720390862589367 28.33599846307711 0 1 -1
4316 254 15 0.06 1.6542573596702874 4.222533223796288 25.30528178870533 1 0 0
5217 307 15 0.06 2.101384962459893 4.194213146072536 27.52176502624756 0 1 -1
4308 254 7 -0.18 1.0659285394142097 3.331752519180439 25.059536332256098 1 0 0
4742 279 16 0.06 2.1694781231141 8.406509645545707 23.36586809257179 0 2 1
2558 151 8 0.06 5.25936270849259 7.3712828767859415 21.09517194559138 1 2 0
5214 307 12 0.06 4.609752660570406 8.475914289220661 28.14803417343974 0 1 -1
4733 279 7 -0.18 1.7208241213200526 9.337200527581864 23.05645796455003 0 2 1
5215 307 13 0.03 5.174171566043049 4.561976544719024 28.157303278931312 0 1 -1
5410 319 4 -0.43 5.426161545750543 2.5135894597133452 24.983937377775717 -1 0 0
5419 319 13 0.03 4.910359111615643 5.256077730993406 22.728671918549736 -1 0 0
2552 151 2 -0.12 5.189828812007009 9.565230739359617 21.22851743989591 1 2 0
5212 307 10 0.06 4.313299360983116 9.148293712190691 25.695280786080026 0 1 -1
1023 61 3 0.51 1.176107757604861 0.7625319736812834 29.644741082786524 0 2 0
5218 307 16 0.06 2.5955004808471607 4.403757285206988 29.138396823115897 0 1 -1
5207 307 5 -0.33 4.225197867258278 6.255227511363012 27.83226479016071 0 1 -1
5205 307 3 0.51 3.5347839551966267 7.062537323906276 27.047361390367108 0 1 -1
4317 254 16 0.06 1.4015727932713504 3.0180664130682415 24.072775458603548 1 0 0
5420 319 14 0.03 4.1190123229031235 4.046666681350218 23.8522195133668 -1 0 0
4339 256 4 -0.43 0.536852200343913 7.0704864757075745 28.03772214466178 0 2 0
5422 319 16 0.06 3.792268512984795 2.466252937985673 21.805589500093575 -1 0 0
5412 319 6 0.19 4.702954151594721 4.162723603738217 22.87676070753103 -1 0 0
5208 307 6 0.19 4.249529375771069 4.840720151997702 27.62361353867453 0 1 -1
5203 307 1 -0.18 3.6021857443489647 9.443699704422615 26.387877844159338 0 1 -1
5211 307 9 0.06 2.633585409660718 9.374707934776541 25.861020941492093 0 1 -1
5421 319 15 0.06 3.0373074982696306 4.062634691139673 21.54745847397667 -1 0 0
4743 279 17 0.06 2.0161547274881526 10.182557435416149 23.69894983859808 0 2 1
5413 319 7 -0.18 3.9472067563815805 3.5476078529896227 21.66385128986384 -1 0 0
5209 307 7 -0.18 3.00221853787959 4.146783669565986 28.146870403946465 0 1 -1
5204 307 2 -0.12 3.665219190317427 8.461175341772378 27.572311566137348 0 1 -1
4741 279 15 0.06 2.2221606321933796 9.563308668308935 22.09892067059117 0 2 1
5219 307 17 0.06 3.2185093437403136 3.0770212951489695 28.154004525894873 0 1 -1
2561 151 11 0.06 4.562206069816785 9.563454883226177 22.126730800264724 1 2 0
5216 307 14 0.03 4.449665876130362 4.663228710975399 26.60555013641366 0 1 -1
1024 61 4 -0.43 1.172118636827303 1.1792750763941655 28.449857632378947 0 2 0
5423 319 17 0.06 4.501413100488723 3.6393289759424214 20.721142055437312 -1 0 0
5438 320 15 0.06 1.9789476471384126 0.9799066621912635 20.56166155454413 1 1 0
5387 317 15 0.06 4.198513587282867 2.352182713889875 37.450438724186036 1 0 -1
3266 193 2 -0.12 5.305792044596547 9.091661267903739 35.589456302355174 0 2 0
5526 326 1 -0.18 2.904309856134936 9.358741510013978 38.76755401235051 2 0 0
5535 326 10 0.06 2.399541260022958 9.175851363885975 39.73235394818736 2 0 0
3275 193 11 0.06 4.975881838712778 8.498055562796244 36.435737135715065 0 2 0
27 2 10 0.06 3.4265578335043614 9.784749817836834 31.771926217589304 1 -1 0
675 40 12 0.06 0.9463802768284542 5.196131517494658 33.01596804006695 -1 1 -1
5737 338 8 0.06 1.0601439512370077 2.740594631893134 35.55473525402546 2 0 -1
5388 317 16 0.06 3.3670580886984656 3.4851464728825823 36.61978612938233 1 0 -1
5527 326 2 -0.12 1.9254830410144839 9.494546905251756 37.55136788554349 2 0 0
5530 326 5 -0.33 1.7002420367884856 7.143851135433006 37.18502372403836 2 0 0
5538 326 13 0.03 1.5077591054593162 5.3477567900283205 36.10851265976436 2 0 0
5733 338 4 -0.43 2.3740799800637538 0.8656772628714604 34.36952883888615 2 0 -1
3273 193 9 0.06 4.458207607931717 7.554162733015867 34.06021515247196 0 2 0
3940 232 13 0.03 3.771006444782787 3.299058402100645 33.18404466819964 -1 2 -2
674 40 11 0.06 1.793529053072248 6.603267369811746 33.59512970445219 -1 1 -1
1025 61 5 -0.33 0.4671710579449997 1.2535112348527713 30.65505200637508 0 2 0
5534 326 9 0.06 3.517716205955997 8.451409024665244 38.40264148948087 2 0 0
3941 232 14 0.03 5.002892070682747 2.076016645385264 33.45474863624809 -1 2 -2
5379 317 7 -0.18 3.5341865746561267 3.184980203757624 37.667002434469694 1 0 -1
5386 317 14 0.03 3.8700374750665985 5.250179551120215 38.44685145055156 1 0 -1
664 40 1 -0.18 2.242026054710179 6.290721964473096 31.55814397632688 -1 1 -1
673 40 10 0.06 2.8915391335016727 5.437808673288249 31.598081867871084 -1 1 -1
3276 193 12 0.06 4.904116394678658 10.089547973400185 35.680744766780684 0 2 0
672 40 9 0.06 1.7035935922727892 6.268530436638021 30.628717825074226 -1 1 -1
26 2 9 0.06 1.781432345932164 10.183436692428625 31.97056425023307 1 -1 0
3934 232 7 -0.18 5.14289429975798 2.9828448245140353 31.58318322390839 -1 2 -2
5389 317 17 0.06 2.5848393441262445 2.947484148483999 38.098400727853964 1 0 -1
5533 326 8 0.06 3.4897398434717704 10.248341692202949 38.95352997241128 2 0 0
68 4 17 0.06 0.950124032290439 7.019555578329489 40.38826794775974 -1 1 0
665 40 2 -0.12 1.2383993833565143 6.238094933499865 32.731266027934446 -1 1 -1
5542 326 17 0.06 0.9215113651089213 4.842561422397887 38.32728943300599 2 0 0
3265 193 1 -0.18 4.814666269284759 8.59015721422374 34.158703239156345 0 2 0
671 40 8 0.06 2.8791654712776644 7.193820101606447 31.537597463291508 -1 1 -1
5536 326 11 0.06 2.516387465049666 9.586928732534519 36.5974454646828 2 0 0
5741 338 12 0.06 1.6194102801072379 1.0480959413573432 37.33318488062268 2 0 -1
3943 232 16 0.06 4.638422998683742 2.1519016049089057 31.125858103888024 -1 2 -2
5378 317 6 0.19 4.296474072765229 4.235965313701275 38.477527686876805 1 0 -1
3942 232 15 0.06 4.801679251344305 3.8928231126276596 31.026935644494543 -1 2 -2
2614 154 13 0.03 1.3208153012936623 1.2236438915883385 40.17266917133422 1 0 -1
5731 338 2 -0.12 1.0934927246856712 0.754236952644336 36.42147249310651 2 0 -1
5385 317 13 0.03 5.327740177671318 4.328840701321822 38.22959431661761 1 0 -1
3933 232 6 0.19 4.8478918354247575 3.035500671164784 33.081217360074795 -1 2 -2
5377 317 5 -0.33 4.321155040154734 3.720472959434327 39.8130009550006 1 0 -1
5528 326 3 0.51 1.002510347314871 8.303857941859134 37.41709217157012 2 0 0
5531 326 6 0.19 0.8294144850402674 6.087293415443866 36.676858705251725 2 0 0
3272 193 8 0.06 4.063508562499984 9.27143712610446 33.839302899939504 0 2 0
18 2 1 -0.18 2.5477659653120184 9.934213493338918 31.219266741464153 1 -1 0
25 2 8 0.06 2.242190088960555 9.001245860682557 30.738350861671922 1 -1 0
5537 326 12 0.06 1.4265367643289193 10.420966916955972 37.71536057854753 2 0 0
5376 317 4 -0.43 2.43521572097653 4.84149358964335 40.55214913000293 1 0 -1
1892 112 5 -0.33 3.266531530788299 14.22232050903852 6.658322693901347 1 1 0
746 44 15 0.06 4.759792476796755 15.104173956451227 2.8636047451354374 0 1 -1
732 44 1 -0.18 4.515545505836835 17.9049092944913 6.816837327237586 0 1 -1
2946 174 5 -0.33 4.222534134987491 10.975117051616929 3.9397170784486697 -1 0 1
1893 112 6 0.19 2.8734420576829125 13.810564831883426 5.363690558075855 1 1 0
577 34 16 0.06 1.3867380139174827 19.497921814330663 3.358285805009193 2 0 2
705 42 8 0.06 1.9078041722913812 10.728122384055624 8.307204643550067 1 0 1
1898 112 11 0.06 3.8238402256670057 14.785734769019607 9.071741718021674 1 1 0
741 44 10 0.06 4.412058087346305 16.84089927717366 6.560544234938685 0 1 -1
1903 112 16 0.06 1.12671726586243 15.359538263115455 5.1324179836521155 1 1 0
1891 112 4 -0.43 4.24747466751444 12.275300397669929 7.181780649869591 1 1 0
4431 261 11 0.06 1.9698252053765575 18.174275676575405 9.590489566433194 1 1 0
2956 174 15 0.06 1.5612477238376559 10.952052247605046 3.5757438737492455 -1 0 1
1900 112 13 0.03 2.3167130617280005 12.895960515555645 5.385563674033473 1 1 0
2955 174 14 0.03 3.313816399592849 12.45497158279773 2.618367755650046 -1 0 1
739 44 8 0.06 3.6972827770705567 18.44279360789053 6.345075318778991 0 1 -1
2948 174 7 -0.18 2.246124230169913 10.491382286557771 2.8731720441616044 -1 0 1
2947 174 6 0.19 3.5155198462078854 11.36436391627727 2.7535950525118 -1 0 1
877 52 10 0.06 0.5001919434664546 12.866644309193353 7.191603719455663 0 -1 1
1890 112 3 0.51 3.9618908602366036 13.393071735957939 7.438942245957563 1 1 0
1889 112 2 -0.12 4.553709382488232 14.16575439228847 8.680366337593316 1 1 0
1902 112 15 0.06 2.680237918756186 15.789364130028552 4.7502178255796474 1 1 0
2954 174 13 0.03 4.150857650466797 11.163377607849212 1.893335600028824 -1 0 1
1894 112 7 -0.18 2.078915445883391 14.920655366938272 4.678770862096492 1 1 0
4421 261 1 -0.18 1.1401973213685384 16.094932503374764 9.487791785087618 1 1 0
740 44 9 0.06 4.413567627641118 17.88259121240487 7.944128696702557 0 1 -1
576 34 15 0.06 1.409657916491912 18.45333261419462 4.819121806049316 2 0 2
5009 295 11 0.06 1.6294005931929934 13.936897616442325 1.4483353477102503 1 -1 1
1904 112 17 0.06 1.8680573830139322 14.803081355968073 3.5979652158385833 1 1 0
4428 261 8 0.06 1.6463241884927973 15.718791785799494 10.36342194666984 1 1 0
578 34 17 0.06 0.46784972506401007 18.083397432424672 3.3457143991463756 2 0 2
4429 261 9 0.06 1.5871479758456564 15.744041202300231 8.522357253407964 1 1 0
5653 333 9 0.06 2.2952992961653043 20.206290621592775 7.338849754398382 1 0 2
745 44 14 0.03 4.608887626207094 17.466740528276528 2.5721876580291307 0 1 -1
1901 112 14 0.03 3.8527268681482165 13.576667849646794 4.818349701945998 1 1 0
4422 261 2 -0.12 1.000341128841196 17.644508628534524 9.567367271497861 1 1 0
1899 112 12 0.06 4.511102993235176 13.35572942997777 9.376198949383948 1 1 0
568 34 7 -0.18 0.7760543386048159 18.839473412291653 3.989726550621197 2 0 2
5000 295 2 -0.12 0.5862036250320006 13.752180913084956 1.1749135427744781 1 -1 1
2054 121 14 0.03 2.4238546858242707 13.509017167489798 15.311580027202895 0 0 1
2516 148 17 0.06 2.9224041156947127 17.537625933582945 13.745537242985733 -1 1 0
2504 148 5 -0.33 5.100653540701374 18.996973437136788 11.426853389948548 -1 1 0
2456 145 8 0.06 2.5414435769389376 17.778571563239367 20.283815022992588 -1 1 -1
2043 121 3 0.51 0.8953839163731462 14.689995167248556 13.427338124971124 0 0 1
2053 121 13 0.03 2.911611016039472 15.059821684334162 14.926351923088767 0 0 1
2506 148 7 -0.18 3.26749708847688 18.154565909452764 12.894681667773307 -1 1 0
3688 217 16 0.06 2.058731604022116 11.027339075910819 11.427796921364262 0 0 1
2465 145 17 0.06 1.5062418008829976 13.478153619658872 19.927828583379647 -1 1 -1
4201 248 2 -0.12 3.7638594322457366 20.018431104980756 16.826747575049865 0 0 1
2464 145 16 0.06 2.746009812621938 12.311816340082608 20.04843065030557 -1 1 -1
2056 121 16 0.06 2.9138922997505827 15.334005595621388 17.26964314774345 0 0 1
2505 148 6 0.19 4.738645509349247 17.955164618727448 12.369476803742094 -1 1 0
2044 121 4 -0.43 1.922723182739259 14.707954963327202 12.731431397681174 0 0 1
2515 148 16 0.06 3.2171925265910315 19.188165439616952 13.273523014314545 -1 1 0
4210 248 11 0.06 2.872132749342125 19.599969026798718 17.298641149856174 0 0 1
2046 121 6 0.19 2.1007736948035136 14.581007758113087 15.40256196184764 0 0 1
3679 217 7 -0.18 1.77067688127381 10.91971345538541 12.458024099607615 0 0 1
3689 217 17 0.06 2.451182938145146 11.256511614410195 13.281120986925904 0 0 1
2514 148 15 0.06 2.563783196099433 17.94963869963637 12.143335603072284 -1 1 0
2047 121 7 -0.18 1.9363477571571261 15.065280865067997 16.81976937573016 0 0 1
2513 148 14 0.03 4.814998149728008 16.984714265089256 11.897393068593061 -1 1 0
4211 248 12 0.06 3.862375645835356 19.36428935616502 16.00720755226593 0 0 1
2045 121 5 -0.33 0.8552612267766753 14.626995597419459 14.76756430756645 0 0 1
5250 309 14 0.03 4.3725724617639266 13.358537362807642 13.492112516023102 0 1 -1
2057 121 17 0.06 1.5894309966785143 14.325343905415576 17.51738557236987 0 0 1
2055 121 15 0.06 1.4470881970921337 16.058236941035123 17.0043138791599 0 0 1
3687 217 15 0.06 0.8109424149422515 11.373699870219063 12.488088201576822 0 0 1
4200 248 1 -0.18 5.0829869868716955 20.018209926524744 17.61565769865115 0 0 1
4432 261 12 0.06 0.602892344988188 17.883603817252286 10.627101450064421 1 1 0
4788 282 11 0.06 0.47385632277127576 19.273255060970932 20.413874382207393 1 -1 -1
2463 145 15 0.06 1.0190063677406322 11.853277391866524 20.3248448124301 -1 1 -1
5240 309 4 -0.43 5.267356658428225 15.939456765277663 14.840434715132742 0 1 -1
4787 282 10 0.06 0.5938255979993445 18.732186459740554 18.049781573308454 1 -1 -1
4209 248 10 0.06 5.36741950168906 19.019429953717594 17.94095632077603 0 0 1
2512 148 13 0.03 5.4346744369234266 17.954389194745453 13.16457543648935 -1 1 0
5242 309 6 0.19 5.450810919686042 13.495000116158193 13.484484247000124 0 1 -1
19 2 2 -0.12 2.6085686008856728 11.017300855256726 30.252623669191326 1 -1 0
582 35 4 -0.43 0.6207365715031425 19.52111099802115 25.242695181528692 1 0 0
1176 70 3 0.51 3.659120613808306 14.655476724712946 27.630822455583182 0 0 1
32 2 15 0.06 1.0388624006325424 12.544158719845433 25.72228930576568 1 -1 0
2452 145 4 -0.43 1.0175566468092896 15.653443170763396 21.7290644566607 -1 1 -1
1186 70 13 0.03 2.3702449693549674 16.550385674377168 29.10477881073518 0 0 1
586 35 8 0.06 0.4565865708960861 18.598670517916847 28.9686421562775 1 0 0
1185 70 12 0.06 3.813322996435355 12.643121606068602 27.548941921888222 0 0 1
1179 70 6 0.19 3.370378270744924 16.30124863530132 29.380227046303883 0 0 1
2455 145 7 -0.18 1.7919042576111877 12.631689567283479 20.533765088064733 -1 1 -1
2450 145 2 -0.12 3.245260943038425 16.241327392455954 21.48854740049263 -1 1 -1
2454 145 6 0.19 1.8413116247825734 12.99270759367667 22.03712669841534 -1 1 -1
579 35 1 -0.18 0.6298200050955445 19.61254232478699 28.73915510569645 1 0 0
22 2 5 -0.33 1.3728950607000145 12.016268955121458 28.469845534771967 1 -1 0
2447 144 16 0.06 3.908429860714684 17.038935772486653 24.458878607609858 -1 0 0
1175 70 2 -0.12 4.3296923065891875 13.466711496325829 27.145444815244105 0 0 1
1177 70 4 -0.43 3.017479078450278 15.346068820540676 26.84456281531461 0 0 1
28 2 11 0.06 3.326563977646221 10.762746667993925 29.3433659936332 1 -1 0
2437 144 6 0.19 4.607325291377688 18.074265693097257 26.233351847756953 -1 0 0
588 35 10 0.06 1.7402664470025675 19.750622924515547 28.68210101694174 1 0 0
2448 144 17 0.06 4.607308216418563 18.73948933229916 24.1259953105903 -1 0 0
1182 70 9 0.06 3.7866553717395384 13.72988309503581 24.924817313467294 0 0 1
1183 70 10 0.06 5.05164237602049 12.449997471787519 25.27083981048231 0 0 1
592 35 14 0.03 1.0934849917014813 16.996155469058863 24.99668677278531 1 0 0
1187 70 14 0.03 4.065559223904161 17.055521149856173 29.040548925843005 0 0 1
1174 70 1 -0.18 4.633909820226562 13.430484596944277 25.64444473433363 0 0 1
1178 70 5 -0.33 3.865481677002833 14.963829590862623 28.920414173308917 0 0 1
2462 145 14 0.03 2.2802852293314797 12.127886658541406 22.590064586398523 -1 1 -1
1969 116 14 0.03 4.965934304720886 12.125482671222468 29.715103275902646 1 -1 0
2446 144 15 0.06 2.9549232013505113 18.45517336367965 24.879051966214593 -1 0 0
1385 82 8 0.06 1.037892856233379 14.758342624616201 29.917107754345544 0 1 1
2451 145 3 0.51 2.180475408043052 15.310946322025194 21.82757455699725 -1 1 -1
2453 145 5 -0.33 2.658978305143972 14.142718696156859 22.217946162487813 -1 1 -1
2444 144 13 0.03 4.717056393225077 19.04053580177934 26.684616266463728 -1 0 0
2458 145 10 0.06 2.0131069974359943 18.024879396395782 21.844782744779334 -1 1 -1
2449 145 1 -0.18 2.8301454895718257 17.6656861071531 21.276666184311114 -1 1 -1
2459 145 11 0.06 3.9345278480125763 16.176592162726788 22.31591641548197 -1 1 -1
33 2 16 0.06 0.915462287633691 13.77754309914789 26.82975648781035 1 -1 0
2438 144 7 -0.18 4.006388276550626 18.083494247291945 24.81178754470547 -1 0 0
2461 145 13 0.03 0.8932718811393203 13.09086374830631 22.544449309903406 -1 1 -1
1184 70 11 0.06 5.268395790431315 13.366533348302434 27.67351092407521 0 0 1
20 2 3 0.51 1.2553893948589938 11.437837776659554 29.631779903203945 1 -1 0
1763 104 12 0.06 4.26603177234393 19.5726570926507 29.85195318390681 1 0 1
2445 144 14 0.03 3.833668123293861 17.599892225509482 26.91424362754624 -1 0 0
2457 145 9 0.06 3.673149587071843 18.317610094530252 21.51901347435931 -1 1 -1
2460 145 12 0.06 3.770753424101794 15.880940196101506 20.583032952842608 -1 1 -1
591 35 13 0.03 0.5159325205764332 15.860801549268793 26.32363548289894 1 0 0
5210 307 8 0.06 3.9536609212484173 10.483041276308 26.6961075085207 0 1 -1
184 11 14 0.03 2.500586990417353 15.835281204067229 33.643006781124704 0 -1 -3
4066 240 3 0.51 3.7436741692546587 13.582648908792196 35.48264434746036 1 0 0
187 11 17 0.06 3.7551910488121 18.12815597466076 34.9110489415509 0 -1 -3
186 11 16 0.06 4.362406986534763 16.553928206533087 35.074789073838666 0 -1 -3
5643 332 16 0.06 2.197123726333309 16.507795602177918 38.505361305198 1 2 -2
177 11 7 -0.18 3.7873247406870245 17.19458459289285 34.34346209753522 0 -1 -3
185 11 15 0.06 4.370308178384621 17.37525148716634 33.43918461898155 0 -1 -3
1189 70 16 0.06 3.130648698629908 17.23155393241858 31.453580327299687 0 0 1
5642 332 15 0.06 1.7825926350811219 17.89873863407666 39.42789343090899 1 2 -2
5002 295 4 -0.43 1.3508031932305864 12.204062470488326 39.65646133149806 1 -1 0
1190 70 17 0.06 4.535395807493411 16.092368038413365 31.225859572063616 0 0 1
4077 240 14 0.03 2.3174608146251723 13.135334235713582 33.418417712005386 1 0 0
4071 240 8 0.06 4.917007824925354 12.69194138064937 38.15447841390181 1 0 0
1387 82 10 0.06 0.7583188176995075 14.383318910329512 31.59939411177396 0 1 1
5632 332 5 -0.33 4.77039146533831 17.42065869251648 38.1968122398854 1 2 -2
4075 240 12 0.06 3.269257719750562 15.116481298502578 36.90957459739878 1 0 0
1755 104 4 -0.43 3.0859841906911405 20.135421595338766 31.980233456910288 1 0 1
1754 104 3 0.51 4.27961333424021 20.437469719905796 31.80078593131594 1 0 1
173 11 3 0.51 0.4544290028139575 16.356453613000667 35.215556313215025 0 -1 -3
175 11 5 -0.33 1.7075472744906413 16.772901577961925 35.33481900187124 0 -1 -3
4064 240 1 -0.18 4.004274615467174 13.355983612005902 38.109797856625214 1 0 0
4065 240 2 -0.12 3.9770129590496004 14.296321389901651 36.906576371643105 1 0 0
5640 332 13 0.03 4.011489741465013 18.837059016827897 39.547603281389776 1 2 -2
4073 240 10 0.06 3.946516888421543 13.89889047965089 39.034955133542056 1 0 0
1180 70 7 -0.18 3.5071025163355922 16.33435681995022 30.92451183532239 0 0 1
5633 332 6 0.19 3.8706486158330553 17.8329219267278 39.200765676879996 1 2 -2
176 11 6 0.19 2.409159570798959 16.784900810399925 34.09214217407624 0 -1 -3
4072 240 9 0.06 3.2046747927714074 12.673490639495315 38.02202384262478 1 0 0
4067 240 4 -0.43 4.5455689658251766 13.536242101479333 34.580898026311516 1 0 0
4068 240 5 -0.33 2.4460084097376886 13.276311294214313 35.38889983267308 1 0 0
4074 240 11 0.06 4.947006133332764 14.799764266331184 36.97261544428601 1 0 0
5644 332 17 0.06 2.321397515070967 18.130174209348674 37.826341771873295 1 2 -2
5634 332 7 -0.18 2.4861081566344017 17.540077099055434 38.7068248215352 1 2 -2
5641 332 14 0.03 4.087715960786679 17.345760310198433 40.138557405318174 1 2 -2
1972 116 17 0.06 5.079481792288504 12.976867131201994 31.84057929672045 1 -1 0
4076 240 13 0.03 2.4253218872379065 11.569082155259968 34.253904587234125 1 0 0
4069 240 6 0.19 1.9949710245442729 12.580786783396173 34.27384191166557 1 0 0
183 11 13 0.03 2.0190808455911644 17.527720527318447 33.37380582841055 0 -1 -3
1188 70 15 0.06 2.9716768845715356 15.47892586097406 31.375312057024388 0 0 1
1753 104 2 -0.12 5.012199990249952 19.82351304724249 30.572576425582294 1 0 1
29 2 12 0.06 2.944319880771947 11.944821305243805 30.71434598256494 1 -1 0
179 11 9 0.06 0.7519646635731324 14.491758430929675 37.29428787424997 0 -1 -3
1725 102 8 0.06 1.756540262022065 20.255919833060858 39.122437000485746 0 0 0
2072 122 15 0.06 2.8823586271522075 27.01179013215457 2.3506671114265107 2 0 0
5658 333 14 0.03 4.180657080899266 25.708410812624773 8.094785752773694 1 0 2
5654 333 10 0.06 3.2906471649168028 21.543036608128563 6.889221918463541 1 0 2
1866 110 13 0.03 4.939097973102047 22.034947483561808 5.447190473020684 2 0 0
5656 333 12 0.06 0.5916335608058965 22.20415219186718 7.723304409406881 1 0 2
2064 122 7 -0.18 3.6745873368923263 26.29369354528548 2.1336272644094736 2 0 0
4930 290 17 0.06 3.3031790728882306 30.265803719586767 0.5929407306481767 0 0 1
1870 110 17 0.06 3.948617880369297 22.209748818405018 3.1130172131059957 2 0 0
1869 110 16 0.06 3.419751784010724 23.608447134311977 4.097932104841802 2 0 0
2062 122 5 -0.33 5.290542538187373 27.746742365988318 1.1735233020161364 2 0 0
5648 333 4 -0.43 1.6742093075024918 24.53212593154037 7.078529832627936 1 0 2