LAMMPS data file via write_data, version 29 Aug 2024, timestep = 1000000, units = real

5831 atoms
17 atom types
5831 bonds
17 bond types
10633 angles
31 angle types
15778 dihedrals
46 dihedral types
3430 impropers
10 improper types

1.416196572223967 40.85359342777596 xlo xhi
2.657941139743521 40.92728886024537 ylo yhi
2.6941049154688557 41.63250508451007 zlo zhi

Masses

1 12.011
2 12.011
3 12.011
4 12.011
5 12.011
6 12.011
7 15.999
8 1.008
9 1.008
10 1.008
11 1.008
12 1.008
13 1.008
14 1.008
15 1.008
16 1.008
17 1.008

Pair Coeffs # lj/cut/coul/long

1 0.066 3.5
2 0.066 3.5
3 0.066 3.5
4 0.066 3.5
5 0.076 3.55
6 0.076 3.55
7 0.17 3.12
8 0.03 2.5
9 0.03 2.5
10 0.03 2.5
11 0.03 2.5
12 0.03 2.5
13 0.03 2.5
14 0.03 2.5
15 0.03 2.42
16 0.03 2.42
17 0 0

Bond Coeffs # harmonic

1 268 1.529
2 268 1.529
3 268 1.529
4 317 1.51
5 317 1.51
6 320 1.41
7 340 1.09
8 340 1.09
9 340 1.09
10 340 1.09
11 340 1.09
12 340 1.09
13 340 1.09
14 340 1.08
15 340 1.08
16 553 0.945
17 549 1.34

Angle Coeffs # harmonic

1 58.35 112.7
2 58.35 112.7
3 63 111.1
4 63 111.1
5 50 109.5
6 37.5 110.7
7 37.5 110.7
8 37.5 110.7
9 37.5 110.7
10 37.5 110.7
11 37.5 110.7
12 37.5 110.7
13 35 117
14 35 117
15 55 108.5
16 33 107.8
17 35 109.5
18 70 124
19 50 109.5
20 35 109.5
21 35 109.5
22 33 107.8
23 35 120
24 37.5 110.7
25 33 107.8
26 35 120
27 37.5 110.7
28 35 109.5
29 70 124
30 35 109.5
31 37.5 110.7

Dihedral Coeffs # opls

1 1.3 -0.05 0.2 0
2 1.3 -0.05 0.2 0
3 1.3 -0.05 0.2 0
4 -0.35601 -0.174 0.492 0
5 1.711 -0.5 0.663 0
6 0 0 0.468 0
7 0 0 0.3 0
8 0 0 0.3 0
9 0.346 0.405 -0.904 0
10 0 0 0.3 0
11 0.346 0.405 -0.904 0
12 0 0 0.3 0
13 1.711 -0.5 0.663 0
14 0 0 0.468 0
15 0 0 -0.372 0
16 0 0 0.318 0
17 -0.35601 -0.174 0.492 0
18 0 14 0 0
19 0 14 0 0
20 0 0 0.3 0
21 0 0 0.3 0
22 0 0 0.468 0
23 0 0 0.318 0
24 0 0 0.366 0
25 0 0 0.468 0
26 0 14 0 0
27 0 14 0 0
28 0 0 0.366 0
29 0 0 0.3 0
30 0 0 0.366 0
31 0 0 0.45 0
32 0 0 0.3 0
33 0 0 0.3 0
34 0 0 0.318 0
35 0 0 -0.372 0
36 0 14 0 0
37 0 0 0.318 0
38 0 0 -0.372 0
39 0 0 0.3 0
40 0 0 0.3 0
41 0 0 0.3 0
42 0 0 0.3 0
43 0 0 0.3 0
44 0 0 0.3 0
45 0 14 0 0
46 0 0 -0.372 0

Improper Coeffs # cvff

1 0 -1 2
2 0 -1 2
3 0 -1 2
4 0 -1 2
5 0 -1 2
6 0 -1 2
7 0 -1 2
8 0 -1 2
9 15 -1 2
10 15 -1 2

Atoms # full

3965 234 4 -0.12 5.332782708099076 4.629391082436722 7.4309608998993415 1 0 0
3964 234 3 0.205 6.707122932980637 4.150190004317858 6.759745848070928 1 0 0
3963 234 2 -0.12 7.165190198057184 5.129797297481996 5.6387346863430965 1 0 0
3966 234 5 -0.115 5.231164908040801 6.182968701253607 7.527282979098514 1 0 0
3967 234 6 -0.115 6.122497764499256 7.003283563687244 7.047484809523419 1 0 0
3975 234 14 0.06 4.387106352136694 4.256810950488536 6.890449631266421 1 0 0
3974 234 13 0.06 5.292255104966849 4.305919489080171 8.430951347423669 1 0 0
3978 234 17 0.418 7.7794196922230725 4.744731953169595 8.25830770197997 1 0 0
3968 234 7 -0.6830000000000001 7.729979980681077 3.9941928583390984 7.673571558506619 1 0 0
3976 234 15 0.115 4.486710056088631 6.699374938371537 8.019312637325644 1 0 0
4240 250 7 -0.6830000000000001 10.4879928885876 5.82530822895819 8.156640402681516 0 0 0
2722 161 2 -0.12 2.009359384290778 4.102772784692329 3.9502100288287245 1 0 1
3972 234 11 0.06 6.541996416214598 5.105965176137809 4.787244057206532 1 0 0
4242 250 9 0.06 7.751305030332128 6.296785605245514 9.23357892844064 0 0 0
4241 250 8 0.06 7.717565556487518 6.921375326708044 10.724469441880302 0 0 0
3962 234 1 -0.12 7.33529339989672 6.559753620012437 6.142975612862337 1 0 0
3970 234 9 0.06 8.296633391188514 6.6647435500752055 6.600023079134331 1 0 0
3969 234 8 0.06 7.405931031007438 7.2349308330756035 5.269920931537461 1 0 0
1171 69 15 0.115 6.928111160925885 4.037937031630066 11.136766083426782 0 0 1
3977 234 16 0.115 6.044206489681041 8.080109241603173 7.219577754366331 1 0 0
4234 250 1 -0.12 8.33472289574986 6.852925842854624 9.91905409950323 0 0 0
4239 250 6 -0.115 8.58278752190727 8.262370876548157 9.41971229074975 0 0 0
4249 250 16 0.115 7.706043089368528 8.888472054951132 9.374945351633075 0 0 0
2118 125 10 0.06 5.310307327721736 8.361107912244861 5.052906209328292 0 0 1
2111 125 3 0.205 3.7543917812558836 8.918887249918612 3.588315753115555 0 0 1
2115 125 7 -0.6830000000000001 2.877684440959368 7.797021744258535 3.981262187963474 0 0 1
4237 250 4 -0.12 11.041609276593285 7.830059946589697 9.148233743895412 0 0 0
2125 125 17 0.418 2.328281689197517 7.971077181196327 4.7647570391094884 0 0 1
2721 161 1 -0.12 2.8969457670237397 2.961814335751436 3.4227824277642886 1 0 1
2730 161 10 0.06 2.656263624064655 4.810222761052176 4.457453907723248 1 0 1
4235 250 2 -0.12 9.587746854416496 6.113110980677472 10.384152332778886 0 0 0
4243 250 10 0.06 9.407492813333302 5.021120161556474 10.36021258130263 0 0 0
1663 98 14 0.06 1.842013278551063 4.523845866766704 11.16359836466137 0 1 1
4236 250 3 0.205 10.813693157674836 6.34044439073387 9.402679581380358 0 0 0
1161 69 5 -0.115 6.967273170235092 3.004987426787981 11.130636826400032 0 0 1
4829 285 1 -0.12 10.93335447522367 5.753086930359517 4.9442828324176595 1 0 1
4238 250 5 -0.115 9.786951304538977 8.693963287988106 9.03521263587815 0 0 0
3973 234 12 0.06 6.566441271375671 3.1629944155007546 6.342858842017285 1 0 0
1172 69 16 0.115 9.048516710299936 2.8970935545314465 11.700448275557124 0 0 1
4845 285 17 0.418 10.404546263563484 8.112433398785942 5.877536206538688 1 0 1
4836 285 8 0.06 11.175668377222856 4.822620294627814 4.439022742732884 1 0 1
4840 285 12 0.06 10.846166560027033 8.921792236861464 3.4119494595173565 1 0 1
1653 98 4 -0.12 1.5674141419461534 4.384213525420427 12.196824212074633 0 1 1
4062 239 16 0.115 8.537384402044433 2.9928654470495206 3.0005836340341796 0 1 0
4835 285 7 -0.6830000000000001 10.180370383286968 8.643835756175788 5.169263036838309 1 0 1
2479 146 14 0.06 7.7618894020124705 7.520493361168515 3.090304644552155 0 0 1
4244 250 11 0.06 9.794950534359465 6.485566438554077 11.332492413314855 0 0 0
466 28 7 -0.6830000000000001 10.261665020002035 3.0560237648512505 8.599851821562478 0 0 0
476 28 17 0.418 9.286471254283082 3.1516566771688868 8.331707794904723 0 0 0
3247 191 17 0.418 3.3553513971384854 8.648855570750602 10.120390355575932 0 1 0
4831 285 3 0.205 11.030846828965998 8.192118320030932 4.150609926275472 1 0 1
4830 285 2 -0.12 10.7442957635858 6.769410633354076 3.8130769880943403 1 0 1
2729 161 9 0.06 3.8058286791232456 3.401680144185364 3.0240085547479834 1 0 1
4838 285 10 0.06 9.663532017332503 6.724838039817752 3.4438797380726016 1 0 1
778 46 13 0.06 1.824193411641608 6.446436489762886 6.622550121770654 0 2 0
4837 285 9 0.06 10.110204514539525 5.5644485410665725 5.613031027203858 1 0 1
4250 250 17 0.418 10.341638035370627 4.8639054548680845 8.174006644035934 0 0 0
1662 98 13 0.06 1.8350592990231813 3.405213095956374 12.371093149937224 0 1 1
2737 161 17 0.418 2.7774378737696286 6.352921698165836 3.0191472141890094 1 0 1
1660 98 11 0.06 1.8873162196872653 7.305617879661504 12.253754518973285 0 1 1
2480 146 15 0.115 5.485123116967295 6.355827029622996 2.935582916238098 0 0 1
3971 234 10 0.06 8.031329632534003 4.6217957831972445 5.217446815082775 1 0 0
3237 191 7 -0.6830000000000001 4.186913776578789 8.955308763777083 9.963266541082344 0 1 0
1169 69 13 0.06 4.932846874612949 2.907016096965356 11.462449056066498 0 0 1
2120 125 12 0.06 4.533824926680399 8.61800013425402 2.8005859265113346 0 0 1
2723 161 3 0.205 1.4651805061204186 4.994357245111052 2.8190573140958666 1 0 1
1661 98 12 0.06 3.5669756343570724 5.387310570656975 12.41618602046374 0 1 1
4690 276 15 0.115 2.223777305626726 15.356698806446587 9.416965756155465 1 -1 0
2002 118 13 0.06 8.303381284967244 15.224133586849886 7.9749719276704605 -1 0 1
3240 191 10 0.06 5.251828083339795 10.270723293453363 12.099884038796821 0 1 0
4687 276 12 0.06 3.393967347118944 15.242431431387056 5.0522514549528115 1 -1 0
4079 240 16 0.115 8.300156167761688 13.671569322892521 3.066926857774701 0 0 0
1862 110 9 0.06 9.510057234141952 10.850806046267182 11.699257426803076 0 0 1
2001 118 12 0.06 6.239042125954829 14.271805637198398 6.75956898333394 -1 0 1
4069 240 6 -0.115 9.208265635807784 13.126656847679925 2.8773044377207126 0 0 0
697 41 17 0.418 5.863092151775264 14.95075254598096 8.77325488572709 0 0 1
2123 125 15 0.115 1.6925018159980099 11.73836191702756 4.065042019746332 0 0 1
2112 125 4 -0.12 2.8670538669995294 10.161240771496438 3.2319607558360683 0 0 1
689 41 9 0.06 4.562922906988559 14.602488787081592 11.539532284393303 0 0 1
3242 191 12 0.06 5.0934304790489655 10.755338017093258 9.810180505014316 0 1 0
2004 118 15 0.115 10.56087044034874 14.177392511704383 7.504382400263935 -1 0 1
690 41 10 0.06 6.919115350498189 14.791907164224943 10.919722800132957 0 0 1
2110 125 2 -0.12 4.7170724603464755 9.291146035494709 4.757712646189862 0 0 1
1999 118 10 0.06 6.32386355101276 11.854685251700236 6.301864989145029 -1 0 1
1861 110 8 0.06 8.13298474400605 11.41865388024897 10.714095954018946 0 0 1
2117 125 9 0.06 3.5641208712265326 9.088903213285693 6.505068162967034 0 0 1
2109 125 1 -0.12 3.9943908019809604 9.82391821124204 5.94779265778475 0 0 1
1859 110 6 -0.115 9.75560444703227 12.839030922737836 10.996601963945604 0 0 1
4688 276 13 0.06 3.701274365728965 14.27571612780039 7.521901908500995 1 -1 0
1868 110 15 0.115 10.716933962223285 14.792936702885255 11.275177891895463 0 0 1
2005 118 16 0.115 10.69818863222554 11.837034510974721 7.1956106372291915 -1 0 1
1992 118 3 0.205 7.090544819036594 13.638730018550579 7.135226960087522 -1 0 1
3232 191 2 -0.12 4.312094586157359 10.686596609477332 11.774431389822148 0 1 0
2119 125 11 0.06 5.3840946704645605 10.063871926440429 4.428461519990741 0 0 1
2003 118 14 0.06 8.493759521988396 15.039021186199307 6.25058742978595 -1 0 1
4078 240 15 0.115 10.310961483198248 13.701318408550188 4.562095908828313 0 0 0
2113 125 5 -0.115 2.4539268049539382 11.026994857763516 4.408620775655002 0 0 1
1854 110 1 -0.12 8.871462082693032 11.741435640707547 11.500681338765803 0 0 1
4068 240 5 -0.115 10.329544655434715 13.074365270453507 3.661614029286157 0 0 0
1993 118 4 -0.12 8.36392944957717 14.484584946407425 7.139576797089887 -1 0 1
1996 118 7 -0.6830000000000001 6.758569068410491 13.136393561716185 8.41095034090429 -1 0 1
4689 276 14 0.06 2.113318936901637 14.405045295131465 6.98930501062787 1 -1 0
1994 118 5 -0.115 9.691385035496824 13.648598829258214 7.221542820318551 -1 0 1
4679 276 4 -0.12 2.9379506282526906 14.998924770737938 7.227168119341301 1 -1 0
1869 110 16 0.115 10.121408584512128 12.81612120156082 9.951239859945748 0 0 1
3243 191 13 0.06 2.8837288129862158 10.545912433921215 8.583556958557995 0 1 0
2114 125 6 -0.115 2.939270987234268 10.913249081702515 5.613736150024678 0 0 1
2000 118 11 0.06 7.1878995926969464 12.777918144790931 5.169929017104811 -1 0 1
3244 191 14 0.06 3.0193999608283724 11.9707462036558 9.529438431995581 0 1 0
3233 191 3 0.205 4.182478525842468 10.351573352292528 10.32097503254958 0 1 0
3241 191 11 0.06 4.337035516773147 11.830271986324243 11.747808882645435 0 1 0
1858 110 5 -0.115 10.150896703413489 13.948715979420934 11.706223701058962 0 0 1
3234 191 4 -0.12 2.95255278863626 10.9131058195367 9.65580974132515 0 1 0
1991 118 2 -0.12 7.29130304379067 12.442352087569658 6.210125175035289 -1 0 1
2116 125 8 0.06 4.643587071237615 10.372978168585243 6.560192998696178 0 0 1
2124 125 16 0.115 2.502823333524371 11.424454215165511 6.435624774847989 0 0 1
1990 118 1 -0.12 8.526077244941295 11.532945685509329 6.552872378846449 -1 0 1
1997 118 8 0.06 8.867331323769294 10.857402582558072 5.7363368736821805 -1 0 1
3236 191 6 -0.115 1.7744066087045072 10.242621060240529 11.781570599860105 0 1 0
4248 250 15 0.115 9.833118541369366 9.70132259264582 8.579081275145638 0 0 0
1998 118 9 0.06 8.305252345528707 10.926172390069867 7.347526636107267 -1 0 1
1995 118 6 -0.115 9.719600816484524 12.319423541831563 7.014969949122403 -1 0 1
2006 118 17 0.418 7.540512201510151 12.782537723969757 8.852119582578904 -1 0 1
3235 191 5 -0.115 1.729614535625434 10.603225637803003 10.50825058116834 0 1 0
249 15 11 0.06 5.306185214164493 4.442331834033524 19.753522138896713 0 0 -1
4373 258 4 -0.12 8.091811728399698 6.431722536053483 21.403041688575662 1 0 0
4383 258 14 0.06 7.922833646987376 6.942156781688291 20.459188402150204 1 0 0
60 4 9 0.06 8.595705673103447 7.676223935502706 16.57834042803463 0 0 0
4374 258 5 -0.115 9.377419071022167 6.949849325068762 22.006693337635756 1 0 0
57 4 6 -0.115 6.4868814235614725 7.287681534553336 16.269886223643876 0 0 0
67 4 16 0.115 6.311540833549979 6.649728334536631 17.07614349715668 0 0 0
4372 258 3 0.205 8.051939238974834 4.956225756499611 21.256711426302157 1 0 0
241 15 3 0.205 4.085563059206579 4.910126222629765 21.279336728059214 0 0 -1
248 15 10 0.06 5.485887028707738 6.143520251331738 19.98956288781865 0 0 -1
52 4 1 -0.12 7.627630965821599 8.253242888700338 16.521011945070484 0 0 0
252 15 14 0.06 3.4922632418491077 2.7951970822465504 21.176065973414122 0 0 -1
250 15 12 0.06 4.911300917715699 4.51568576209366 21.94240578307245 0 0 -1
240 15 2 -0.12 4.662812838467818 5.346694707017491 19.934593289968486 0 0 -1
68 4 17 0.418 8.601049163782248 6.9346381039708165 14.618699680352439 0 0 0
66 4 15 0.115 5.037822811854088 6.330210427541752 15.195222412257362 0 0 0
56 4 5 -0.115 5.829439962901809 7.0584359095984714 15.130027849070116 0 0 0
1656 98 7 -0.6830000000000001 2.9267590058446737 4.703207812786598 14.160491801501594 0 1 1
4381 258 12 0.06 7.257188476484537 4.669170054134724 20.569768432841883 1 0 0
4371 258 2 -0.12 9.345654355702592 4.416706984028623 20.638761514974465 1 0 0
58 4 7 -0.6830000000000001 8.544243159791657 7.513194901073734 13.878871593274036 0 0 0
1456 86 11 0.06 10.163014059886265 4.314251964734192 16.124621470725998 0 0 -1
1187 70 14 0.06 7.469713231515697 4.6168510049866445 15.267279069425129 0 1 0
239 15 1 -0.12 3.6112751368434104 5.721065706538461 18.857787654360983 0 0 -1
1666 98 17 0.418 3.140562742824984 3.7845314993127155 13.915384807517539 0 1 1
1178 70 5 -0.115 6.702481510240928 3.7196725251556053 17.201401733985705 0 1 0
247 15 9 0.06 3.286550128043692 6.820766697261564 18.995672228645716 0 0 -1
1188 70 15 0.115 6.244990892031768 4.602150931548476 17.606315969573096 0 1 0
1659 98 10 0.06 2.5541384594448244 7.351522533612562 13.848884675673942 0 1 1
1177 70 4 -0.12 6.830734265352524 3.791976688702421 15.679918618849426 0 1 0
4380 258 11 0.06 9.389954132779852 4.784908955913988 19.648874283307517 1 0 0
246 15 8 0.06 4.0477559257170554 5.688829542056334 17.87210492102112 0 0 -1
55 4 4 -0.12 6.215706021535049 7.822879191926002 13.83879942516004 0 0 0
64 4 13 0.06 6.214393111324992 7.201630306841433 12.966691228918515 0 0 0
59 4 8 0.06 7.460431595761467 8.748850928685204 17.401291429166584 0 0 0
65 4 14 0.06 5.327960365013544 8.532082406742814 13.747112272570776 0 0 0
244 15 6 -0.115 2.458012577436139 4.784370671630885 18.858761236465874 0 0 -1
1652 98 3 0.205 2.5462245780045922 5.3214802186936705 12.939379215926799 0 1 1
54 4 3 0.205 7.580078354077989 8.586363220099242 14.015292229430969 0 0 0
1186 70 13 0.06 5.881522513481499 4.037354762676195 15.257182988352794 0 1 0
1446 86 1 -0.12 11.187211300590759 5.004954133362041 14.498372584967562 0 0 -1
254 15 16 0.115 1.8197157296510895 4.854353949583999 17.985550830767846 0 0 -1
5821 343 7 -0.6830000000000001 2.101532570639707 8.514756407287017 21.701386185803 0 1 0
253 15 15 0.115 1.4244257470044113 3.098436935956768 19.866977898236055 0 0 -1
4379 258 10 0.06 9.36906938634866 3.337216038723522 20.41875704347575 1 0 0
1453 86 8 0.06 10.295975375998939 4.76663161238129 13.893017873394582 0 0 -1
245 15 7 -0.6830000000000001 3.5859908347676823 6.098292296427732 21.912279938879827 0 0 -1
4382 258 13 0.06 7.1795415926909705 6.760892203914446 21.91361255179811 1 0 0
242 15 4 -0.12 3.0659990518084492 3.8047484991684435 21.172514435521613 0 0 -1
1651 98 2 -0.12 1.9643728847347077 6.721391204165317 13.19878515866336 0 1 1
243 15 5 -0.115 2.2353453362735523 3.881473180052219 19.89416994024536 0 0 -1
5823 343 9 0.06 4.7157878190453575 8.439680491827755 20.781033998080943 0 1 0
388 23 14 0.06 1.4915545002130695 8.467911752221605 16.785286022566083 1 0 0
4375 258 6 -0.115 10.575339634951852 6.298252073736151 21.898608185061875 1 0 0
4370 258 1 -0.12 10.67751253030273 4.874104117449506 21.27750354803539 1 0 0
1459 86 14 0.06 10.893328616001172 6.545709175908383 17.817374896396153 0 0 -1
255 15 17 0.418 3.122096211893754 6.633217181526668 21.22611240852224 0 0 -1
1447 86 2 -0.12 11.154502580750316 4.289900944951971 15.879670108517807 0 0 -1
4378 258 9 0.06 10.918727749332616 4.197982451352567 22.162223271707905 1 0 0
5831 343 17 0.418 2.9217317383463426 8.416435801756458 22.103556110231924 0 1 0
1185 70 12 0.06 7.9173181064095495 2.680247047062295 14.253297793393182 0 1 0
1461 86 16 0.115 11.204555570153568 7.046561654509272 13.784246967132647 0 0 -1
251 15 13 0.06 2.3434392171174196 3.951933251076661 21.92195024433231 0 0 -1
5828 343 14 0.06 2.065446372972212 11.756396741054465 21.647894925735514 0 1 0
2234 132 7 -0.6830000000000001 10.369706624933187 12.180745146507624 20.946656902199884 0 1 1
2242 132 15 0.115 10.859716330455145 12.814409058457768 17.030476406626875 0 1 1
1870 110 17 0.418 10.259948758232087 11.393683993165075 13.626644806337818 0 0 1
2851 168 12 0.06 5.2956028952226495 12.354804785912524 19.100494162699775 0 0 0
2244 132 17 0.418 9.736564047743625 12.84949394424403 21.123995072587856 0 1 1
190 12 3 0.205 2.208835049032785 14.430023220104992 15.278000257432575 0 0 0
63 4 12 0.06 7.6606824820082045 9.227025439375026 13.164766904367054 0 0 0
3238 191 8 0.06 2.8909398026203705 10.814754721822368 13.419552570186887 0 1 0
1855 110 2 -0.12 8.164245481794843 12.11713661319856 12.791897941621587 0 0 1
2917 172 10 0.06 1.5547508356235682 14.894191865900666 20.726483790739252 1 1 0
2853 168 14 0.06 5.7401330980482435 10.895802457789676 17.296976274614657 0 0 0
61 4 10 0.06 8.679640219239957 9.82897170403049 15.242232027352367 0 0 0
53 4 2 -0.12 7.742427510155946 9.28779164572859 15.278426435761048 0 0 0
5825 343 11 0.06 3.203263368516727 10.747817572907273 19.611185918463043 0 1 0
201 12 14 0.06 2.3071980181409777 13.915261205099828 13.232318650346665 0 0 0
5824 343 10 0.06 2.9719101168239668 9.054060993549282 19.270998535225274 0 1 0
1514 90 1 -0.12 8.718236279273631 15.190524659756377 20.830584231077186 0 0 1
688 41 8 0.06 5.230157140105072 15.361923577962932 12.992939729917047 0 0 1
1519 90 6 -0.115 9.993504641036289 15.222220818080421 21.70942044319637 0 0 1
204 12 17 0.418 2.3068622939236114 13.868477754477501 17.127612097266713 0 0 0
2232 132 5 -0.115 10.913407012625965 12.087662070671724 17.895158829489283 0 1 1
1523 90 10 0.06 6.695902573774634 14.67009756701731 20.99200647380604 0 0 1
3239 191 9 0.06 3.13673335387033 9.261726509406696 13.021297817328977 0 1 0
1515 90 2 -0.12 7.433608063189277 14.946238138678455 21.760578913656804 0 0 1
2855 168 16 0.115 6.022622913356196 13.444606827154747 14.388809094692167 0 0 0
1867 110 14 0.06 8.990854443550088 15.049226330124904 13.286496363163641 0 0 1
2919 172 12 0.06 3.8865289478202167 14.626742108387964 21.10643361031894 1 1 0
2849 168 10 0.06 5.882144982193285 14.758820710677334 18.480699696856494 0 0 0
1522 90 9 0.06 8.901188381204712 14.414322783153253 20.074081730818992 0 0 1
1860 110 7 -0.6830000000000001 10.18177350624763 12.05793328988483 14.295289042723498 0 0 1
1866 110 13 0.06 10.585434126964811 14.480564634522652 13.758832172412903 0 0 1
2240 132 13 0.06 9.04220293206576 12.836290213967871 18.766185406417662 0 1 1
2843 168 4 -0.12 5.011518496365801 11.602987119358692 17.092690449257734 0 0 0
2840 168 1 -0.12 6.1078333744704345 14.391006292000178 16.44212783862428 0 0 0
5822 343 8 0.06 5.2268857605946 9.758020279717218 19.672594054825762 0 1 0
5830 343 16 0.115 5.843904121551507 10.661381247038916 22.141503314562165 0 1 0
2229 132 2 -0.12 10.885858517759454 10.01087199318317 19.862120556837446 0 1 1
2852 168 13 0.06 3.992455932998802 11.194863287774407 17.12069016603976 0 0 0
2231 132 4 -0.12 9.626131140906624 11.901664707002707 18.642730190581368 0 1 1
5820 343 6 -0.115 4.8734657300003015 10.418040181494097 21.73440968156041 0 1 0
2241 132 14 0.06 9.042374896314593 11.316838431302294 17.957276859585154 0 1 1
2854 168 15 0.115 5.252430644742337 11.361909656709804 14.888846839242207 0 0 0
2846 168 7 -0.6830000000000001 3.701632781888703 13.434408078655638 18.08544520881673 0 0 0
5817 343 3 0.205 2.130560963354263 9.734108233697496 21.072415261237072 0 1 0
194 12 7 -0.6830000000000001 1.6185098681507804 13.771742829540221 16.446270302333566 0 0 0
1865 110 12 0.06 8.647393772654524 13.160971085606493 14.70636478188594 0 0 1
2841 168 2 -0.12 6.057078544910941 13.865558957132665 17.88148378517345 0 0 0
2230 132 3 0.205 9.893062701260341 11.190864769392524 20.008051509662995 0 1 1
2238 132 11 0.06 10.438360674156618 9.294132607125068 19.097302349304947 0 1 1
2239 132 12 0.06 8.863018816789591 11.081356884045078 20.256957567969064 0 1 1
199 12 12 0.06 3.274924348541326 14.197973367217056 15.243398127379153 0 0 0
2845 168 6 -0.115 5.872917688652597 13.321768763492425 15.426514935801025 0 0 0
1863 110 10 0.06 7.738274737067842 11.23052583873927 13.301409876824135 0 0 1
5816 343 2 -0.12 3.205614675501388 9.77159859374744 20.002214657907338 0 1 0
2856 168 17 0.418 3.767867278166301 14.224177329072672 18.659050836779027 0 0 0
2989 176 14 0.06 11.157921845554128 14.832616938583781 18.515593400572822 1 0 0
2850 168 11 0.06 7.00745836131288 13.505587229986972 18.165414677207718 0 0 0
2842 168 3 0.205 4.994730729034242 12.798922657649339 18.114599799235812 0 0 0
2844 168 5 -0.115 5.339816258957847 12.085015751286699 15.688378687137126 0 0 0
1856 110 3 0.205 9.185846489455958 12.859897649587971 13.819894945751052 0 0 1
2987 176 12 0.06 9.55415029494798 15.02753843306136 16.584959199328637 1 0 0
62 4 11 0.06 6.917741426815911 10.029144153712881 15.344764162804307 0 0 0
5815 343 1 -0.12 4.636820894411347 9.472056703347313 20.51443994859425 0 1 0
1857 110 4 -0.12 9.698306807484327 14.207114338807042 13.1985288003918 0 0 1
3231 191 1 -0.12 3.0554997502300965 10.209320945751205 12.542379405759037 0 1 0
2848 168 9 0.06 5.432507336153301 15.200280550490817 16.277521583392872 0 0 0
2847 168 8 0.06 7.098566825871972 14.771128039106555 16.190322863965267 0 0 0
191 12 4 -0.12 1.6317145080093343 13.764138935561853 13.994512355760921 0 0 0
5818 343 4 -0.12 2.3579940696063812 10.855529855512883 22.101014280620465 0 1 0
200 12 13 0.06 1.5381199930568175 12.706032077061469 14.040330339897292 0 0 0
389 23 15 0.115 1.5629904185244299 11.11326870837613 17.296846338010354 1 0 0
2237 132 10 0.06 10.997939182193749 9.443333748617418 20.76984114871216 0 1 1
1864 110 11 0.06 7.2748768455562285 12.734627379798258 12.658381167625127 0 0 1
1463 87 1 -0.12 6.4228508601767444 5.467327432438517 28.88486302919716 0 1 0
1464 87 2 -0.12 6.644298155970364 4.020127606207881 29.33505938384531 0 1 0
1471 87 9 0.06 5.588859757223669 5.961718684028588 29.37713164847211 0 1 0
1468 87 6 -0.115 6.280622205368848 5.5977815718940285 27.375498397386075 0 1 0
1478 87 16 0.115 6.344529214331195 6.6314958881391455 27.012081631132233 0 1 0
2388 141 8 0.06 2.166665335065292 3.43224917797511 31.523223218675454 1 0 0
1716 101 16 0.115 9.08548955767553 7.285456929526781 26.54389176846626 0 0 0
1467 87 5 -0.115 6.105072142534606 4.565564852134958 26.54564973258039 0 1 0
1470 87 8 0.06 7.297000029050731 6.052131212414546 29.270465198991054 0 1 0
1479 87 17 0.418 4.224436227260102 4.282778340525467 28.491642886934045 0 1 0
1469 87 7 -0.6830000000000001 4.343142828163783 3.3867377779936425 28.79209659454798 0 1 0
1465 87 3 0.205 5.6874957645891575 3.0826062268533523 28.549222900625725 0 1 0
1466 87 4 -0.12 5.936905360226065 3.0625762779786387 27.043137668541718 0 1 0
1473 87 11 0.06 7.712890339181505 3.650013251768999 29.212842041561544 0 1 0
120 8 1 -0.12 10.452702185209386 4.776002922309743 25.312323076307536 -1 0 -1
5138 303 4 -0.12 2.514432611084718 8.476550189561276 25.909819849546246 1 0 -1
1472 87 10 0.06 6.39852167169566 3.8870860532793245 30.348024570590326 0 1 0
5148 303 14 0.06 3.3939493750838134 8.679580529470893 25.250870641828946 1 0 -1
5139 303 5 -0.115 3.0197438045777716 7.975790282730878 27.277578045144555 1 0 -1
5145 303 11 0.06 3.0199990525788194 5.9071888376775 24.878761192165744 1 0 -1
1706 101 6 -0.115 8.387110602715701 8.028273128834705 26.13286237488326 0 0 0
2064 122 7 -0.6830000000000001 10.589034092505065 8.069830571174052 29.385464284497402 0 0 0
128 8 9 0.06 10.047043488429237 4.6167442270214085 24.35927313660297 -1 0 -1
2067 122 10 0.06 9.540103155115602 5.678596173617609 29.70653377710045 0 0 0
2069 122 12 0.06 10.826376100168776 6.471724810417398 27.93361533304411 0 0 0
2059 122 2 -0.12 10.6362646083924 5.647858875988834 29.888277548403632 0 0 0
1705 101 5 -0.115 8.009682363359723 7.94080940498779 24.867184537591555 0 0 0
2058 122 1 -0.12 10.981997383025389 5.953250069509753 31.38189857863327 0 0 0
1715 101 15 0.115 8.33915658716587 7.083291009583747 24.438106933243667 0 0 0
1477 87 15 0.115 6.078139765936867 4.773544307160686 25.53463590921215 0 1 0
5142 303 8 0.06 2.714461352194223 4.643320327217269 27.084391609286808 1 0 -1
121 8 2 -0.12 9.706049935674475 3.989151128039169 26.351108717829828 -1 0 -1
2337 138 8 0.06 6.259673737091629 8.843446332478312 30.95409541881474 0 1 1
5135 303 1 -0.12 2.308077438187055 5.647649029033605 26.962510597094184 1 0 -1
2060 122 3 0.205 11.140189272272453 6.808385189066609 28.939364857486723 0 0 0
1714 101 14 0.06 6.132728367991779 8.521631620015103 24.14747218311984 0 0 0
2394 141 14 0.06 2.7994730602164353 8.107563430155565 31.540708627324683 1 0 0
5136 303 2 -0.12 2.0361901421311184 6.039603950814043 25.42763583623581 1 0 -1
127 8 8 0.06 10.332501652939396 5.8493057161859685 25.456392880294963 -1 0 -1
5137 303 3 0.205 1.501076636000406 7.47350516138345 25.30834942503601 1 0 -1
5140 303 6 -0.115 2.9310804328426903 6.701550756944779 27.81587000103713 1 0 -1
5150 303 16 0.115 3.3070672803908616 6.433138816548882 28.821996254918794 1 0 -1
2074 122 17 0.418 10.709036794438864 8.170237949147602 30.30555573741893 0 0 0
130 8 11 0.06 9.965801461083473 4.33774298875402 27.347625271515778 -1 0 -1
129 8 10 0.06 8.686209398095457 4.150631761999647 26.26467402154792 -1 0 -1
5149 303 15 0.115 3.488811172046211 8.79689719038945 27.775381413151997 1 0 -1
1708 101 8 0.06 7.849019839410258 8.744785320970625 28.088063593005373 0 0 0
4376 258 7 -0.6830000000000001 7.898653829824937 4.387843105454103 22.452197959327783 1 0 0
4386 258 17 0.418 6.995125509188395 4.517288046468158 22.75826200365857 1 0 0
2068 122 11 0.06 10.910404515527272 4.706775472719078 29.473159525525485 0 0 0
4384 258 15 0.115 9.396050917202015 7.99848620923869 22.377532042558958 1 0 0
2339 138 10 0.06 8.40593355236432 7.6033319506504915 31.79782390226343 0 1 1
2065 122 8 0.06 10.985423887654786 4.956088786068419 31.741845456517296 0 0 0
3187 188 8 0.06 5.071253720728775 14.163997354780854 31.649208237672383 -1 0 1
1407 83 13 0.06 10.70800999301968 14.784177202000777 26.831130020270592 -1 1 0
2338 138 9 0.06 7.728175402923933 9.47697690957558 30.279225080108084 0 1 1
2419 143 5 -0.115 1.5261970848796413 10.821381998065148 29.148714736654295 1 1 0
1527 90 14 0.06 8.634574351054852 15.161422847780209 24.4144533612114 0 0 1
1528 90 15 0.115 10.94163245925379 14.759237262433178 23.4915673665856 0 0 1
1704 101 4 -0.12 7.103648605681185 9.046213779167953 24.279931507575903 0 0 0
4909 289 13 0.06 10.8165533647621 12.28926815679903 24.456858725014513 0 1 0
5819 343 5 -0.115 3.872587633743889 11.084642742243902 22.34669074349378 0 1 0
1408 83 14 0.06 9.322779743567992 15.251578854186237 27.739841608563893 -1 1 0
2330 138 1 -0.12 7.215526281044116 9.332406481084664 31.240167251324685 0 1 1
1713 101 13 0.06 7.386752152281199 9.33559340782596 23.203895521691017 0 0 0
145 9 9 0.06 2.897096650435424 14.766297784886078 26.385423868987246 0 0 -1
1404 83 10 0.06 11.262669872363709 14.93196222863081 31.0526357293923 -1 1 0
1518 90 5 -0.115 10.029362234902864 14.732981726890277 22.95268226412319 0 0 1
1397 83 3 0.205 11.218067640824664 14.93627345713921 28.92298418604178 -1 1 0
138 9 2 -0.12 4.450316970952613 13.214221628190986 26.631003130053468 0 0 -1
2336 138 7 -0.6830000000000001 10.110584366492606 9.582330141322158 31.727494332080326 0 1 1
1520 90 7 -0.6830000000000001 7.784036599676179 12.651808810340023 22.40969591160011 0 0 1
1712 101 12 0.06 6.17366586331856 10.937953004903225 24.73972220309781 0 0 0
4913 289 17 0.418 10.184858330859603 10.749267596220218 22.627355636365067 0 1 0
147 9 11 0.06 4.619870876968987 12.279060062540267 27.200462305754247 0 0 -1
5147 303 13 0.06 2.13720285405439 9.476078632344928 26.18681995776942 1 0 -1
146 9 10 0.06 4.311613374661382 12.976924676982675 25.571914839254998 0 0 -1
1402 83 8 0.06 9.679205944716344 12.632893531761072 31.12342769443896 -1 1 0
4903 289 7 -0.6830000000000001 10.47402847246979 10.09422886886744 23.248480096462135 0 1 0
5829 343 15 0.115 4.0156393545096805 11.694652981137516 23.180114276745318 0 1 0
1701 101 1 -0.12 7.9815400707883635 9.176823159840588 27.106215930158744 0 0 0
1400 83 6 -0.115 9.653051595972634 12.4732243533117 28.989753907178375 -1 1 0
1711 101 11 0.06 5.858396971269805 9.317587565346104 26.707447740332487 0 0 0
150 9 14 0.06 6.432105526508474 13.892454588631722 28.778776038150504 0 0 -1
1405 83 11 0.06 9.656562688202685 14.898132961028619 30.324244664581585 -1 1 0
1517 90 4 -0.12 8.820374919295674 14.289785203846632 23.807531556704777 0 0 1
1525 90 12 0.06 6.652070669518 13.867717752006095 23.421137990419954 0 0 1
1395 83 1 -0.12 10.27450428051681 12.974445739341634 30.26057114925144 -1 1 0
144 9 8 0.06 2.3630794374104402 13.281462563712326 27.09289790169248 0 0 -1
1398 83 4 -0.12 10.2207603357988 14.61748165013377 27.799744409054135 -1 1 0
152 9 16 0.115 2.452360569878742 15.077289283432014 28.7061402788726 0 0 -1