LAMMPS data file via write_data, version 29 Aug 2024, timestep = 1000000, units = real

5832 atoms
27 atom types
5616 bonds
26 bond types
10584 angles
49 angle types
14256 dihedrals
66 dihedral types

3.6377216711065827 42.811168328598576 xlo xhi
7.5781125068147865 45.01047749315989 ylo yhi
8.019384395897376 46.140045604115855 zlo zhi

Masses

1 12.011
2 12.011
3 12.011
4 12.011
5 12.011
6 12.011
7 12.011
8 12.011
9 15.999
10 1.008
11 1.008
12 1.008
13 1.008
14 1.008
15 1.008
16 1.008
17 1.008
18 1.008
19 1.008
20 1.008
21 1.008
22 1.008
23 1.008
24 1.008
25 1.008
26 1.008
27 1.008

Pair Coeffs # lj/cut/coul/long

1 0.066 3.5
2 0.066 3.5
3 0.066 3.5
4 0.066 3.5
5 0.066 3.5
6 0.066 3.5
7 0.066 3.5
8 0.066 3.5
9 0.17 3.12
10 0.03 2.5
11 0.03 2.5
12 0.03 2.5
13 0.03 2.5
14 0.03 2.5
15 0.03 2.5
16 0.03 2.5
17 0.03 2.5
18 0.03 2.5
19 0.03 2.5
20 0.03 2.5
21 0.03 2.5
22 0.03 2.5
23 0.03 2.5
24 0.03 2.5
25 0.03 2.5
26 0.03 2.5
27 0 0

Bond Coeffs # harmonic

1 268 1.529
2 268 1.529
3 268 1.529
4 268 1.529
5 268 1.529
6 268 1.529
7 268 1.529
8 320 1.41
9 340 1.09
10 340 1.09
11 340 1.09
12 340 1.09
13 340 1.09
14 340 1.09
15 340 1.09
16 340 1.09
17 340 1.09
18 340 1.09
19 340 1.09
20 340 1.09
21 340 1.09
22 340 1.09
23 340 1.09
24 340 1.09
25 340 1.09
26 553 0.945

Angle Coeffs # harmonic

1 58.35 112.7
2 58.35 112.7
3 58.35 112.7
4 58.35 112.7
5 58.35 112.7
6 58.35 112.7
7 50 109.5
8 37.5 110.7
9 37.5 110.7
10 37.5 110.7
11 37.5 110.7
12 37.5 110.7
13 37.5 110.7
14 37.5 110.7
15 37.5 110.7
16 37.5 110.7
17 37.5 110.7
18 37.5 110.7
19 37.5 110.7
20 37.5 110.7
21 37.5 110.7
22 37.5 110.7
23 37.5 110.7
24 37.5 110.7
25 55 108.5
26 37.5 110.7
27 33 107.8
28 33 107.8
29 50 109.5
30 37.5 110.7
31 33 107.8
32 33 107.8
33 58.35 112.7
34 33 107.8
35 33 107.8
36 33 107.8
37 37.5 110.7
38 33 107.8
39 58.35 112.7
40 37.5 110.7
41 33 107.8
42 33 107.8
43 37.5 110.7
44 50 109.5
45 33 107.8
46 33 107.8
47 33 107.8
48 33 107.8
49 37.5 110.7

Dihedral Coeffs # opls

1 1.3 -0.05 0.2 0
2 1.3 -0.05 0.2 0
3 1.3 -0.05 0.2 0
4 0 0 0.3 0
5 0 0 0.3 0
6 0 0 0.3 0
7 0 0 0.3 0
8 -0.35601 -0.174 0.492 0
9 0 0 0.3 0
10 0 0 0.3 0
11 0 0 0.3 0
12 0 0 0.3 0
13 0 0 0.3 0
14 0 0 0.3 0
15 0 0 0.3 0
16 0 0 0.3 0
17 0 0 0.3 0
18 0 0 0.3 0
19 1.3 -0.05 0.2 0
20 0 0 0.3 0
21 0 0 0.3 0
22 0 0 0.3 0
23 0 0 0.3 0
24 0 0 0.3 0
25 0 0 0.3 0
26 0 0 0.3 0
27 0 0 0.3 0
28 0 0 0.3 0
29 0 0 0.3 0
30 0 0 0.468 0
31 0 0 0.3 0
32 1.711 -0.5 0.663 0
33 0 0 0.3 0
34 0 0 0.3 0
35 0 0 0.3 0
36 0 0 0.3 0
37 0 0 0.3 0
38 0 0 0.468 0
39 0 0 0.3 0
40 0 0 0.3 0
41 0 0 0.3 0
42 0 0 0.3 0
43 -0.35601 -0.174 0.492 0
44 0 0 0.3 0
45 0 0 0.3 0
46 0 0 0.3 0
47 0 0 0.3 0
48 0 0 0.3 0
49 0 0 0.468 0
50 1.3 -0.05 0.2 0
51 0 0 0.3 0
52 1.3 -0.05 0.2 0
53 0 0 0.3 0
54 0 0 0.468 0
55 0 0 0.468 0
56 0 0 0.3 0
57 0 0 0.3 0
58 0 0 0.3 0
59 0 0 0.468 0
60 0 0 0.3 0
61 0 0 0.3 0
62 0 0 0.3 0
63 0 0 0.3 0
64 -0.35601 -0.174 0.492 0
65 0 0 0.468 0
66 0 0 0.468 0

Atoms # full

1475 55 17 0.06 7.077663330324151 12.79421478358239 15.000518292737066 0 1 0
4929 183 15 0.06 11.608958776526595 10.053561233752209 14.398095077279486 1 -1 0
5145 191 15 0.06 9.55701366037722 11.240149400936533 10.970596742301943 1 0 0
5133 191 3 -0.06 8.623080873537639 11.890826778695573 10.785070247354378 1 0 0
5134 191 4 -0.18 7.573163788426189 10.79217117432265 11.058822592978325 1 0 0
5147 191 17 0.06 7.5477944049185774 10.713480909101634 12.159791868905218 1 0 0
1478 55 20 0.06 5.9862001734360195 10.469660279847314 14.29219388761506 0 1 0
1461 55 3 -0.06 5.7527605348970425 11.536022533460281 16.182692322796218 0 1 0
5148 191 18 0.06 7.81987409409243 9.929167356290456 10.501951158090947 1 0 0
1462 55 4 -0.18 7.082894444508016 12.169465872843318 15.898033964613962 0 1 0
5146 191 16 0.06 6.524225963375207 11.035437624933353 10.902635478938677 1 0 0
4941 183 27 0.418 11.71509629564461 8.607242621155073 12.514052465528192 1 -1 0
1465 55 7 -0.18 4.581172015446823 12.727640765329854 13.414709582899372 0 1 0
4628 172 11 0.06 6.286941291821375 15.72909579945112 15.881229349411138 1 0 0
4928 183 14 0.06 10.09594276022322 9.42205446703526 12.794477913416538 1 -1 0
4927 183 13 0.06 9.152621320800781 10.25177621471285 14.220710837821578 1 -1 0
4917 183 3 -0.06 10.985512455717855 9.225579339307265 14.839858445000504 1 -1 0
4916 183 2 -0.12 9.741084107430304 9.379981417417493 13.895518417109013 1 -1 0
1476 55 18 0.06 7.819423993908126 11.37435057625658 15.900745747638961 0 1 0
4915 183 1 -0.18 8.683021988494586 8.228958191021377 14.051753875905167 1 -1 0
4918 183 4 -0.18 10.551379283013866 9.821810733279422 16.230025897305485 1 -1 0
4931 183 17 0.06 10.084149063192967 10.792460389104296 16.120304078225093 1 -1 0
1463 55 5 -0.12 5.186028746797002 10.733321990731088 14.939171933333391 0 1 0
1474 55 16 0.06 7.257426296685344 12.849317370145602 16.756948231096757 0 1 0
5156 191 26 0.06 10.735521678370887 10.506146030138444 9.008624040379967 1 0 0
532 20 19 0.06 6.768598632210171 18.012664738762663 8.657951797217983 0 0 0
4919 183 5 -0.12 11.720838945209623 7.820440910073779 14.80475778233171 1 -1 0
4926 183 12 0.06 7.667750710784962 8.568481792064988 13.72116551009261 1 -1 0
4932 183 18 0.06 11.459796746089996 9.981148763490078 16.80748521430158 1 -1 0
4924 183 10 0.06 8.43673212938742 7.962581251373814 15.154881382369886 1 -1 0
1468 55 10 0.06 6.214256443790861 8.581081830089737 17.124674402960636 0 1 0
5135 191 5 -0.12 8.50424375335545 12.365180123393827 9.28970368806977 1 0 0
4930 183 16 0.06 9.844682479303717 9.18815870933277 16.79034469649411 1 -1 0
4637 172 20 0.06 6.338204490612029 17.772019999279173 13.488152052692556 1 0 0
1477 55 19 0.06 4.722394509522576 9.7771182074941 15.328876610373708 0 1 0
4638 172 21 0.06 7.281098727046414 19.94050530770867 12.160502745674396 1 0 0
4923 183 9 -0.6830000000000001 12.43582648178376 7.914476508022878 12.492026201486707 1 -1 0
5139 191 9 -0.6830000000000001 8.336482588220221 10.22220526840869 8.107261695428473 1 0 0
4642 172 25 0.06 4.175675689960666 19.716537651823057 14.45903888519367 1 0 0
3604 134 13 0.06 10.018110749644496 17.963613533641727 9.301156652391025 0 1 0
1466 55 8 -0.18 3.837467227804482 10.434129026256414 12.861076993127979 0 1 0
3606 134 15 0.06 12.40069385561392 18.223821946372222 10.27419003205009 0 1 0
3593 134 2 -0.12 10.911941186732236 17.907792918607 8.71799731151577 0 1 0
1480 55 22 0.06 5.433977191604314 12.520203670119649 12.771606612690723 0 1 0
5180 192 23 0.06 13.11115845717752 7.672066223514673 8.092051914319535 1 0 1
337 13 13 0.06 3.988795551268584 16.879093679654297 9.798575588953067 0 1 0
523 20 10 0.06 6.896904871864694 19.722943969055216 9.852213986588854 0 0 0
1668 62 21 0.06 4.255546831746644 11.032719962589164 9.446941923800772 0 1 1
429 16 24 0.06 12.93941370075814 15.775794740776243 14.271100253041858 0 0 0
1654 62 7 -0.18 3.7420499486703345 10.922855728660654 8.522796736207702 0 1 1
3595 134 4 -0.18 13.298118394274658 18.878943129863977 8.358509469287112 0 1 0
1473 55 15 0.06 5.08238956230189 12.374898339906508 16.202264836258294 0 1 0
5150 191 20 0.06 7.517877297545335 12.592615349170888 9.160941237181056 1 0 0
2235 83 21 0.06 3.7551985783886916 8.199997583563086 16.189317368300696 0 1 0
427 16 22 0.06 12.57368909236538 12.251995950785055 16.780568178971187 0 0 0
428 16 23 0.06 11.689105284645153 12.365204059779703 15.315011426226963 0 0 0
3602 134 11 0.06 11.641050603919036 15.94480038515276 9.242834282539345 0 1 0
4920 183 6 0.265 12.90635647078701 7.6238805677459025 13.80186662973643 1 -1 0
527 20 14 0.06 4.745506481054239 19.655142284620673 8.834968661023137 0 0 0
4630 172 13 0.06 8.87929497786077 17.144663455398394 16.72312900805482 1 0 0
4643 172 26 0.06 4.7843189271101805 19.487637581457406 12.8434280410581 1 0 0
1460 55 2 -0.12 5.6340837932873065 10.774223091033011 17.546421050128416 0 1 0
5615 208 26 0.06 4.3040710964241455 14.34109481427161 16.204092205901738 1 1 0
1671 62 24 0.06 3.90397960267829 8.556176403116671 9.732111740844516 0 1 1
5612 208 23 0.06 3.899456847100224 16.361156694852575 14.725461566571322 1 1 0
5138 191 8 -0.18 10.430223018748567 11.172404191995643 8.152782181976052 1 0 0
539 20 26 0.06 6.836392368018698 15.626807584240128 8.779832593725509 0 0 0
1470 55 12 0.06 7.483494646089358 9.701335583379347 17.459600388386107 0 1 0
1484 55 26 0.06 4.68601984074967 10.101880746776326 12.255103519842802 0 1 0
1481 55 23 0.06 4.895670818554107 13.455884904481453 14.165927895260525 0 1 0
4634 172 17 0.06 8.305803031607272 17.022856967908915 12.826820850231265 1 0 0
4623 172 6 0.265 6.408205794974086 19.77003198815018 14.25396419543566 1 0 0
3600 134 9 -0.6830000000000001 9.733586273423812 19.727997828998213 11.240361627562617 0 1 0
4635 172 18 0.06 7.881866630515701 15.591316463142986 13.97729464967368 1 0 0
420 16 15 0.06 11.422676885733178 16.366017261452434 16.93765490128652 0 0 0
5136 191 6 0.265 8.922545213621305 11.501762054666385 8.095205546084422 1 0 0
4631 172 14 0.06 7.270193956707931 18.023892109842674 16.898594132618577 1 0 0
5157 191 27 0.418 7.371018592043841 10.240009670187316 8.242794705051024 1 0 0
3613 134 22 0.06 11.885798836307568 19.12796515335231 12.618961687463788 0 1 0
325 13 1 -0.18 4.789959069227465 15.676504726925966 11.45550868429628 0 1 0
410 16 5 -0.12 13.217229136590014 15.013883141803596 16.990486268577417 0 0 0
336 13 12 0.06 4.348876483618046 15.017351409496605 12.218542117052866 0 1 0
1582 59 16 0.06 13.267507019020133 12.717391596758024 12.84456654886851 0 1 0
1464 55 6 0.265 4.150031908277592 11.392375678474632 14.008488079554553 0 1 0
3618 134 27 0.418 9.948475863425891 18.826449726727823 11.175205301549433 0 1 0
430 16 25 0.06 11.371645066420967 15.268688825257932 14.68028266107405 0 0 0
5142 191 12 0.06 9.628870331752246 14.745309809413888 12.494336233348696 1 0 0
5140 191 10 0.06 9.298197174963594 14.862769389665871 10.80854350281037 1 0 0
3592 134 1 -0.18 11.244382072184992 16.45350737068304 8.35922958446479 0 1 0
4627 172 10 0.06 7.8852950222322225 15.060121183303675 16.11680678580862 1 0 0
5131 191 1 -0.18 9.51458570699701 14.11669981483082 11.62450551840774 1 0 0
426 16 21 0.06 11.014628214454152 13.238283648081055 16.621236340431146 0 0 0
412 16 7 -0.18 11.992876621556391 12.942476094827416 16.123337525112884 0 0 0
1479 55 21 0.06 3.7768424335558644 13.129724055184855 12.808285552644826 0 1 0
5149 191 19 0.06 8.960960165948379 13.34940491785662 9.24467920503675 1 0 0
334 13 10 0.06 5.246371582012864 16.590379998641453 11.898583998911551 0 1 0
4632 172 15 0.06 8.694112199993466 18.571094838936475 14.956512369783816 1 0 0
3594 134 3 -0.06 12.069293488775747 18.69750724544584 9.317626134392006 0 1 0
5144 191 14 0.06 8.630078699261507 12.753559298268385 12.91771221141174 1 0 0
335 13 11 0.06 5.438487641266049 15.013294403159716 10.799653019242905 0 1 0
4633 172 16 0.06 9.46142302256186 16.266146178423647 13.978653980913133 1 0 0
4618 172 1 -0.18 7.198618908573627 15.866066500089294 16.482832772310545 1 0 0
413 16 8 -0.18 12.330192251285096 14.941976733462466 14.613540491083102 0 0 0
5143 191 13 0.06 7.515848695327411 13.581052718475537 11.910985692971156 1 0 0
5132 191 2 -0.12 8.491650934240443 13.077861365317663 11.825822513311515 1 0 0
411 16 6 0.265 12.903408263471716 14.110524408024764 15.780483439314992 0 0 0
431 16 26 0.06 12.401648095387472 14.37131149838489 13.70431933575345 0 0 0
4622 172 5 -0.12 6.599920373746938 18.20255154381823 14.449584214341453 1 0 0
4636 172 19 0.06 5.7618498748694655 17.853017328118376 15.082233189842071 1 0 0
5141 191 11 0.06 10.425648846094193 13.54578036070819 11.641642774105891 1 0 0
4619 172 2 -0.12 7.841434611062306 17.246502279587425 16.282755651085736 1 0 0
4620 172 3 -0.06 7.982604051073278 17.722764549465055 14.852835984362219 1 0 0
4621 172 4 -0.18 8.40936917081703 16.601749766737743 13.87087259845817 1 0 0
3478 129 22 0.06 10.321789306113734 7.906941866447612 8.315720489642693 1 0 1
1580 59 14 0.06 13.17706814691747 14.306065209619696 10.722698790717201 0 1 0
5154 191 24 0.06 11.01001153347066 12.04519529520843 8.24556377608235 1 0 0
4639 172 22 0.06 8.479652742899015 19.98580180061152 13.494827647113743 1 0 0
30 2 3 -0.06 10.69183192289779 8.90122667273227 22.538868730787144 0 0 0
32 2 5 -0.12 9.296543693932616 9.453087665552648 22.3089708319278 0 0 0
33 2 6 0.265 8.179302526660127 8.469471499657622 21.70630227292122 0 0 0
31 2 4 -0.18 11.351640655947893 9.547894315996707 23.780275100495253 0 0 0
35 2 8 -0.18 6.89846530825524 9.369482078133831 21.83650977740588 0 0 0
3300 123 6 0.265 4.089639077692549 15.738649845969995 22.128470613124122 0 0 0
47 2 20 0.06 8.865844251238121 9.747455900662942 23.249444726001844 0 0 0
46 2 19 0.06 9.525650282043683 10.3647465138997 21.719642573027155 0 0 0
51 2 24 0.06 6.818739987543729 9.71925780160943 22.847893438968214 0 0 0
28 2 1 -0.18 12.241058205599705 10.248117714983108 20.91602136680546 0 0 0
39 2 12 0.06 12.582337337657167 10.725258445550146 21.75459681103253 0 0 0
29 2 2 -0.12 11.764052976766969 8.914147958060683 21.37202958106709 0 0 0
3308 123 14 0.06 6.595571390782192 12.226509580128527 22.03454552594056 0 0 0
53 2 26 0.06 7.009338129450318 10.27603586599503 21.17691464595439 0 0 0
40 2 13 0.06 12.629165742694058 8.215926548914847 21.41266068430236 0 0 0
5496 204 15 0.06 8.262071693916472 12.919292522697539 25.11265146571373 1 0 1
37 2 10 0.06 11.54251782112197 10.875561053054405 20.356485167219375 0 0 0
408 16 3 -0.06 12.175505855777251 15.940725099705716 17.67212372217125 0 0 0
41 2 14 0.06 11.341941439484192 8.668441031015211 20.41565939920909 0 0 0
5493 204 12 0.06 10.542139639672031 11.832526325785976 25.78205666338658 1 0 1
1471 55 13 0.06 5.818520796928388 11.48824724904787 18.37508482062711 0 1 0
3295 123 1 -0.18 8.415953562678446 13.368477504353246 21.912975747723003 0 0 0
3305 123 11 0.06 8.652364800576112 14.45388316873418 22.068609097462208 0 0 0
5497 204 16 0.06 6.224150194643702 11.40390353270855 24.787026224559707 1 0 1
3304 123 10 0.06 8.869841354227649 12.611670755118801 22.484727505839302 0 0 0
38 2 11 0.06 13.052317356742307 10.11916346705996 20.234566917243576 0 0 0
3296 123 2 -0.12 6.882255719336898 13.274157650429206 22.17287406678593 0 0 0
45 2 18 0.06 11.325140605467254 10.60965453063503 23.81861902404013 0 0 0
4650 173 6 0.265 4.2322703771786045 19.640320980006898 19.78254628559883 1 1 0
3306 123 12 0.06 8.716520519928421 13.093666656772854 20.980224458106765 0 0 0
52 2 25 0.06 6.089239293123745 8.717813962782248 21.698062007353315 0 0 0
3307 123 13 0.06 6.71237024244205 13.519122812345593 23.192294262245646 0 0 0
3314 123 20 0.06 4.0027615589883565 13.597247670329791 21.646478771554637 0 0 0
5484 204 3 -0.06 7.7328590497268515 12.536718241212846 26.034743616143924 1 0 1
4668 173 24 0.06 5.751399142541148 19.907700802968293 21.20526784572287 1 1 0
5482 204 1 -0.18 10.064867124118804 11.6394028087049 26.740590758355562 1 0 1
5495 204 14 0.06 8.435101309469545 10.531679797934485 25.982498191342206 1 0 1
1469 55 11 0.06 6.603372901876542 9.242126873660233 18.819455693067717 0 1 0
4011 149 15 0.06 10.771764979295185 20.007682625293057 23.30688214405823 1 0 0
4009 149 13 0.06 10.358147532201583 18.477415566762172 21.084703840705494 1 0 0
5483 204 2 -0.12 8.527912389756407 11.363538388175195 26.651355813222786 1 0 1
4001 149 5 -0.12 12.6192443904716 19.525484302566845 22.14915708372697 1 0 0
3914 145 26 0.06 4.83287292544329 7.964528733274721 26.661261014917205 1 0 0
3901 145 13 0.06 3.6520314967500362 11.222811868351796 24.19010657394968 1 0 0
409 16 4 -0.18 13.030553379966733 17.159088221130983 18.153628802593005 0 0 0
983 37 11 0.06 11.164376837725548 13.643234216306357 21.935396683093124 0 0 -1
4012 149 16 0.06 10.991407666219988 18.125805921554694 24.835014218825982 1 0 0
265 10 22 0.06 4.439915909526538 19.407904344492174 26.634111832222064 0 0 0
36 2 9 -0.6830000000000001 8.457843395500541 8.086228798274968 20.419575263928174 0 0 0
3912 145 24 0.06 5.757573609361071 7.858097683551229 25.27961522119589 1 0 0
3303 123 9 -0.6830000000000001 4.195171496022824 16.268306855811765 20.845460602250395 0 0 0
3318 123 24 0.06 4.328841608193292 17.65053805820616 23.27013440543874 0 0 0
3313 123 19 0.06 4.854603779487069 14.044732944165997 23.143457200447333 0 0 0
5489 204 8 -0.18 7.21765827227005 15.702910985861422 25.43531126583788 1 0 1
5504 204 23 0.06 9.889114373844073 16.035529696349172 25.640514853486305 1 0 1
416 16 11 0.06 9.295941222927267 15.621013302756209 18.78112580991854 0 0 0
3998 149 2 -0.12 10.394057101055544 18.18502241869526 22.125629067485654 1 0 0
974 37 2 -0.12 13.294648039642416 13.573604487507344 22.250145135407013 0 0 -1
4010 149 14 0.06 10.7621475111969 17.187730802512498 22.106593038536296 1 0 0
4000 149 4 -0.18 11.806990984566944 18.332617897425365 24.133926933176195 1 0 0
4651 173 7 -0.18 4.131136625383597 18.800106271813885 18.40792507387095 1 1 0
422 16 17 0.06 12.41353071806082 17.917323173470557 18.58942601894595 0 0 0
418 16 13 0.06 11.139684643149845 14.326435435299718 18.531197025599248 0 0 0
4629 172 12 0.06 7.05508060320048 15.700338178912471 17.558683105743754 1 0 0
3999 149 3 -0.06 11.311706702960816 19.159312108980608 22.93580633569274 1 0 0
417 16 12 0.06 10.248822742743952 16.969188784843503 19.313279800726196 0 0 0
44 2 17 0.06 10.72782589669712 9.23743771718146 24.600313941601463 0 0 0
4667 173 23 0.06 4.500397060088051 17.773468604054244 18.471988752879497 1 1 0
3311 123 17 0.06 6.938850547292708 13.82435815174767 19.577973680533002 0 0 0
1472 55 14 0.06 4.617589530475247 10.531766963750838 17.8589908238458 0 1 0
982 37 10 0.06 11.728049957850374 14.161510570054151 23.607882234242318 0 0 -1
4665 173 21 0.06 4.845808769664443 19.157667749781623 17.626200985046545 1 1 0
4013 149 17 0.06 12.53364783229721 18.800258267656417 24.77335233549588 1 0 0
251 10 8 -0.18 7.38106695840785 19.442130453028362 26.611929848300345 0 0 0
43 2 16 0.06 12.321021310083424 9.096622216141197 23.97348830404777 0 0 0
268 10 25 0.06 7.680944412270277 18.59869729422536 26.061233568036855 0 0 0
42 2 15 0.06 10.642825321106226 7.874493543037682 22.817254113356427 0 0 0
3309 123 15 0.06 6.5270584033888435 15.189501259564047 21.44963388977753 0 0 0
5499 204 18 0.06 5.958330428598944 11.585868291481887 26.639104867190504 1 0 1
4006 149 10 0.06 8.414744564787735 17.229676819203288 22.262186187990448 1 0 0
3997 149 1 -0.18 8.990577565533075 18.067655602099297 22.667927201057363 1 0 0
3302 123 8 -0.18 4.894054931446462 16.638621686244484 23.15891014784974 0 0 0
3319 123 25 0.06 5.905351249744168 16.76756651492767 22.896023897010835 0 0 0
3312 123 18 0.06 5.4856513606526285 14.85899434822892 19.441982420734185 0 0 0
4671 173 27 0.418 4.004886067511556 18.075179889191435 20.774309138214093 1 1 0
415 16 10 0.06 10.12133634197675 15.615780962245339 20.389024346131983 0 0 0
5505 204 24 0.06 7.053975822923311 15.154611038023717 24.538536899158466 1 0 1
3299 123 5 -0.12 4.7319316192153 14.36446341908658 22.107916114293342 0 0 0
4014 149 18 0.06 12.015573576850421 17.297018595667097 23.943640850023204 1 0 0
5502 204 21 0.06 9.87578467298145 14.412875171543313 25.19500491614634 1 0 1
5498 204 17 0.06 5.603018962153653 12.914517756329289 25.4763922547606 1 0 1
5507 204 26 0.06 6.1681609170448155 15.919056523193008 25.742940216830043 1 0 1
407 16 2 -0.12 11.426308784084537 15.277049055574913 18.812510927856323 0 0 0
4015 149 19 0.06 12.55955082683569 19.098354572472168 21.165637503856864 1 0 0
3321 123 27 0.418 5.124219402185276 16.176324346053974 20.660902439299022 0 0 0
5506 204 25 0.06 7.589777473624924 16.660614318718693 25.089568304536098 1 0 1
5487 204 6 0.265 8.152502561222182 15.09362518219322 26.507083512258315 1 0 1
3298 123 4 -0.18 5.931047581540572 13.944783751439555 19.877949240678518 0 0 0
3310 123 16 0.06 5.390332047216657 13.099512452019955 19.667864212700167 0 0 0
973 37 1 -0.18 11.92054774350955 14.196299582682533 22.533315445316205 0 0 -1
984 37 12 0.06 11.794589432737924 15.204161064123475 22.218241743344898 0 0 -1
5488 204 7 -0.18 9.632557774981013 15.075118522385594 26.016495026459733 1 0 1
4008 149 12 0.06 9.122189837857976 18.048569317908274 23.710377951744828 1 0 0
3907 145 19 0.06 4.196871814540842 8.92588504538277 23.462390755760698 1 0 0
5503 204 22 0.06 10.412813947971841 14.883919099726985 26.829365725471302 1 0 1
4652 173 8 -0.18 5.710290643772832 19.67232614627777 20.16323515501572 1 1 0
3297 123 3 -0.06 6.042873277858371 14.216407202856857 21.39455920553945 0 0 0
264 10 21 0.06 4.851291776948564 17.788911221093663 26.357955746390257 0 0 0
419 16 14 0.06 12.260326506998043 15.10709286051691 19.53825763664645 0 0 0
4670 173 26 0.06 6.177452463911777 18.724650743285444 19.99947878720457 1 1 0
406 16 1 -0.18 10.18814514448221 15.913360804339515 19.312509865561157 0 0 0
5485 204 4 -0.18 6.272568105689206 12.046894829952063 25.720218758991248 1 0 1
3320 123 26 0.06 4.774626160125297 16.15141059198492 24.090014059949716 0 0 0
4007 149 11 0.06 8.402763055904089 18.968815532098446 22.48149510675271 1 0 0
1459 55 1 -0.18 6.479727782102817 9.463935584868427 17.739849034920738 0 1 0
1131 42 24 0.06 9.454003641413003 19.831091861782888 18.274147509637842 1 0 1
267 10 24 0.06 7.026891543917023 20.031270787191414 25.769703378360756 0 0 0
2963 110 20 0.06 10.656444189361665 8.142904848766069 26.767907004325806 1 0 -1
985 37 13 0.06 13.32324859725926 13.189833016477335 21.250092800670203 0 0 -1
3859 143 25 0.06 8.827035694604142 9.345543259661024 36.30772433676668 1 1 0
3856 143 22 0.06 9.7693139443444 11.372707158379072 34.86083849771232 1 1 0
2960 110 17 0.06 8.566988217416762 8.202704639583368 29.576109141172097 1 0 -1
3841 143 7 -0.18 10.70361610387245 10.814955613821777 34.87993979337001 1 1 0
3857 143 23 0.06 10.519098689536902 10.084756422226572 34.088789401091105 1 1 0
2956 110 13 0.06 12.205215353721453 9.556017738112681 29.75112653609215 1 0 -1
3855 143 21 0.06 11.615892095446533 11.31393055740084 34.59759468727118 1 1 0
5412 201 12 0.06 6.629148007828303 10.984573512556855 35.2702785748884 1 1 -1
2948 110 5 -0.12 11.46276501597126 8.039290510316075 27.525886300258147 1 0 -1
5401 201 1 -0.18 6.218965726529641 10.142302747661144 34.756496117416546 1 1 -1
5411 201 11 0.06 5.19041597097558 10.383353882190619 34.52216870932149 1 1 -1
3148 117 16 0.06 5.788062700197842 11.48287754016114 30.612643362458925 1 0 -1
5417 201 17 0.06 4.216585136746391 8.696371075622366 33.5586674034519 1 1 -1
5414 201 14 0.06 6.95371254034365 10.42885867708226 32.87732756568075 1 1 -1
3150 117 18 0.06 6.981353703760185 12.369480295877652 29.632261572489472 1 0 -1
2944 110 1 -0.18 10.969552081766926 9.366211456360574 31.248207009755593 1 0 -1
2955 110 12 0.06 11.485940121356618 8.460008637326396 31.579608101920883 1 0 -1
2954 110 11 0.06 11.435814753234707 10.316137367015573 31.656447577272285 1 0 -1
5410 201 10 0.06 6.1795322889712 9.43505544045388 35.50937290848961 1 1 -1
2560 95 22 0.06 11.518656599426134 13.107392028975216 30.902921023749812 1 0 0
5624 209 8 -0.18 9.516727814106758 19.48638715084618 30.807670762797226 1 0 0
266 10 23 0.06 4.264167591377783 18.292349237679602 27.893757823881945 0 0 0
3840 143 6 0.265 10.846512198371782 10.25465576532819 36.254064963188725 1 1 0
3136 117 4 -0.18 6.29913759043132 12.427588115187326 30.524954375924988 1 0 -1
2945 110 2 -0.12 11.102069843317711 9.414177112271965 29.75912225658829 1 0 -1
3842 143 8 -0.18 9.86459325562201 9.056638114986143 36.42769640980483 1 1 0
5402 201 2 -0.12 6.964676399065315 9.608459339640794 33.60555143450631 1 1 -1
5649 210 6 0.265 4.438086337298896 19.47530216469283 36.494631619401495 1 0 0
2962 110 19 0.06 12.166240981129883 8.782080743894559 27.347473607899307 1 0 -1
2959 110 16 0.06 8.790816789251013 9.017359120256797 28.0697109775275 1 0 -1
5413 201 13 0.06 8.011864151618234 9.401077291301052 33.88717133880196 1 1 -1
2953 110 10 0.06 9.950633519816954 9.414505429731769 31.556994023238392 1 0 -1
2561 95 23 0.06 10.560328451851959 13.109661496261163 29.427845011947966 1 0 0
2559 95 21 0.06 9.876018947580636 13.320668387739195 30.93440199751888 1 0 0
2957 110 14 0.06 10.698241793309881 10.410824882559872 29.33778603423098 1 0 -1
2545 95 7 -0.18 10.740698251727853 13.628043171822888 30.355310848129935 1 0 0
5403 201 3 -0.06 6.388578494360639 8.236054861967643 33.13675264438824 1 1 -1
3149 117 17 0.06 6.936551121070758 12.425481906379328 31.388722046781268 1 0 -1
2946 110 3 -0.06 10.698477142233715 8.203685151714978 28.893475185193147 1 0 -1
2947 110 4 -0.18 9.170023094373427 8.210522815040765 28.726745039418425 1 0 -1
5404 201 4 -0.18 4.88589239220159 8.375228142958505 32.787426817474596 1 1 -1
2024 75 26 0.06 9.71180460471374 14.871325800650846 34.96803721642871 0 0 -1
5419 201 19 0.06 8.284457410089683 7.997222827173963 32.18581593351368 1 1 -1
3849 143 15 0.06 13.09188702907749 9.31944390376022 35.0316245954854 1 1 0
3261 121 21 0.06 13.233056852524461 10.83008491609485 28.091530691440415 1 0 0
5622 209 6 0.265 9.299504272021075 19.693502710604573 32.33415307456125 1 0 0
2563 95 25 0.06 11.316847931635515 16.84156905039024 31.708781274492893 1 0 0
3145 117 13 0.06 4.1975433313954404 13.260932505565465 28.613018907946902 1 0 -1
5650 210 7 -0.18 5.607846914033271 18.98127602648056 35.59000429815136 1 0 0
249 10 6 0.265 6.296402110726069 19.0579886862348 27.685025249565914 0 0 0
270 10 27 0.418 7.111835592946196 17.29762025828343 27.93234249934129 0 0 0
5492 204 11 0.06 10.22570020959981 12.551266989551491 27.391173567665998 1 0 1
5643 209 27 0.418 8.686974638583948 17.78773020659057 32.30385917535134 1 0 0
3157 117 25 0.06 8.125908828334659 14.486351869407866 32.25354675516417 1 0 -1
3151 117 19 0.06 5.886418824197422 15.541773607791017 29.512551228509494 1 0 -1
5494 204 13 0.06 8.25519802970194 11.206055846408008 27.650073983512705 1 0 1
3154 117 22 0.06 5.011747507441617 17.320207058134084 31.082656481322225 1 0 -1
2017 75 19 0.06 12.206942610860288 15.657605752581606 34.648942661977145 0 0 -1
5641 209 25 0.06 10.552329194081047 19.234970776832796 30.54252849599561 1 0 0
2022 75 24 0.06 9.581456273097203 16.357995933297357 35.97736492950446 0 0 -1
2564 95 26 0.06 12.015232529724623 15.20480741882771 32.290866099877476 1 0 0
2541 95 3 -0.06 12.800254748321693 16.91989064068811 29.492105495535167 1 0 0
5666 210 23 0.06 5.286662089605423 18.04939198165164 35.03013787524502 1 0 0
2006 75 8 -0.18 9.845833777010343 15.277381097705955 35.99664790160263 0 0 -1
5664 210 21 0.06 6.44382048719406 18.603162799955395 36.17306285179447 1 0 0
2547 95 9 -0.6830000000000001 9.923720011645132 15.769681250362646 29.617758008869977 1 0 0
3156 117 24 0.06 7.752205838839882 15.919967208782653 33.26387019643766 1 0 -1
5632 209 16 0.06 11.238676475666336 18.109179068449063 33.93421712311487 1 0 0
3137 117 5 -0.12 6.315664215798078 14.897141058178967 30.257880029590773 1 0 -1
3837 143 3 -0.06 13.202583503606622 9.020899345820803 36.067018885539554 1 1 0
3147 117 15 0.06 5.0557442909889225 13.702116923508411 31.49836807524522 1 0 -1
5415 201 15 0.06 6.361917643510097 7.645593685572776 34.01334636123744 1 1 -1
3138 117 6 0.265 6.6213947918022065 15.841455953985106 31.443611332440884 1 0 -1
3158 117 26 0.06 6.684298885931245 14.584581464796088 33.289735475774926 1 0 -1
2544 95 6 0.265 10.976993490142343 15.154697391816025 30.28310119255975 1 0 0
3858 143 24 0.06 10.11618160532188 8.211978438458514 35.767187252302946 1 1 0
3134 117 2 -0.12 4.037827959864104 13.503072472486949 29.665112269743375 1 0 -1
2543 95 5 -0.12 12.315352412923946 15.458396194088875 29.575315553847563 1 0 0
252 10 9 -0.6830000000000001 6.760046254414365 17.994679682382746 28.520635751618617 0 0 0
3140 117 8 -0.18 7.358426790186788 15.149069930020275 32.63901783376286 1 0 -1
3159 117 27 0.418 7.165729849300101 17.09019582524636 30.255733037252284 1 0 -1
3135 117 3 -0.06 5.385921355271549 13.635930053858424 30.511656654291073 1 0 -1
3152 117 20 0.06 7.26906333883629 14.602227752164879 29.828955973042852 1 0 -1
2562 95 24 0.06 10.25310670147481 15.506934251483557 32.22042601579119 1 0 0
5634 209 18 0.06 12.994916222175398 18.449168949414172 33.694591528350024 1 0 0
3155 117 23 0.06 5.723010870559593 17.4862453517807 32.58983100661945 1 0 -1
2018 75 20 0.06 12.088069365487216 17.01844941571215 35.75663432946667 0 0 -1
3141 117 9 -0.6830000000000001 7.575638541845092 16.655951450082853 30.95969876315001 1 0 -1
2555 95 17 0.06 12.101927897134466 17.61975162960198 27.587030810947873 1 0 0
2558 95 20 0.06 12.22717231378683 14.971543599428166 28.609726313431132 1 0 0
5620 209 4 -0.18 12.044674581115597 18.904973457587747 33.91284711714694 1 0 0
5508 204 27 0.418 8.862697760348244 15.774214172247719 28.20137806748736 1 0 1
5490 204 9 -0.6830000000000001 8.229695797577165 16.05206143551819 27.533944370682537 1 0 1
3153 117 21 0.06 4.607480219336253 16.133848684079624 32.26664552460787 1 0 -1
2565 95 27 0.418 9.21682901046436 15.881091372371174 30.268102503794214 1 0 0
3139 117 7 -0.18 5.404318684742766 16.736591302628334 31.902075069228413 1 0 -1
2553 95 15 0.06 11.960754430632909 17.50636264518934 29.883731477864306 1 0 0
2546 95 8 -0.18 11.160300717896737 15.716224697292652 31.720171922010753 1 0 0
2003 75 5 -0.12 12.266225183971153 15.94350497376894 35.720368551613795 0 0 -1
388 15 10 0.06 10.233044185193117 19.482312819586078 36.27889205273113 0 0 0
5625 209 9 -0.6830000000000001 9.125595146534534 18.403175014559693 32.89812097501819 1 0 0
5501 204 20 0.06 6.794299296557702 13.789081621934194 27.51487268671978 1 0 1
2542 95 4 -0.18 12.994287654624197 17.35594976719391 28.084613012733413 1 0 0
5637 209 21 0.06 7.046602717103399 19.66121510894228 32.12201587471593 1 0 0
5665 210 22 0.06 5.908244919027682 19.699744792302234 34.76414567604705 1 0 0
5659 210 16 0.06 4.991101365615327 16.159062225614992 36.39695754154771 1 0 0
2557 95 19 0.06 13.09473134743856 14.79717594613373 29.972900963645003 1 0 0
5500 204 19 0.06 8.264656275439897 13.535145656780681 27.990166682038048 1 0 1
5416 201 16 0.06 4.737596007736814 9.001101054847185 31.90554298310131 1 1 -1