LAMMPS data file via write_data, version 29 Aug 2024, timestep = 1000000, units = real

6174 atoms
18 atom types
5831 bonds
17 bond types
10633 angles
31 angle types
13377 dihedrals
39 dihedral types

-1.8997699693924872 39.24592996939998 xlo xhi
1.1666079142080186 38.54431208577019 ylo yhi
-0.5674471161938541 39.596517116191464 zlo zhi

Masses

1 12.011
2 12.011
3 12.011
4 12.011
5 12.011
6 15.999
7 1.008
8 1.008
9 1.008
10 1.008
11 1.008
12 1.008
13 1.008
14 1.008
15 1.008
16 1.008
17 1.008
18 1.008

Pair Coeffs # lj/cut/coul/long

1 0.066 3.5
2 0.066 3.5
3 0.066 3.5
4 0.066 3.5
5 0.066 3.5
6 0.17 3.12
7 0.03 2.5
8 0.03 2.5
9 0.03 2.5
10 0.03 2.5
11 0.03 2.5
12 0.03 2.5
13 0.03 2.5
14 0.03 2.5
15 0.03 2.5
16 0.03 2.5
17 0.03 2.5
18 0 0

Bond Coeffs # harmonic

1 268 1.529
2 268 1.529
3 268 1.529
4 268 1.529
5 320 1.41
6 340 1.09
7 340 1.09
8 340 1.09
9 340 1.09
10 340 1.09
11 340 1.09
12 340 1.09
13 340 1.09
14 340 1.09
15 340 1.09
16 340 1.09
17 553 0.945

Angle Coeffs # harmonic

1 58.35 112.7
2 58.35 112.7
3 58.35 112.7
4 50 109.5
5 37.5 110.7
6 37.5 110.7
7 37.5 110.7
8 37.5 110.7
9 37.5 110.7
10 37.5 110.7
11 37.5 110.7
12 37.5 110.7
13 37.5 110.7
14 37.5 110.7
15 37.5 110.7
16 55 108.5
17 33 107.8
18 50 109.5
19 37.5 110.7
20 33 107.8
21 33 107.8
22 33 107.8
23 37.5 110.7
24 33 107.8
25 33 107.8
26 33 107.8
27 37.5 110.7
28 33 107.8
29 35 109.5
30 37.5 110.7
31 37.5 110.7

Dihedral Coeffs # opls

1 1.3 -0.05 0.2 0
2 1.3 -0.05 0.2 0
3 0 0 0.3 0
4 0 0 0.3 0
5 -0.35601 -0.174 0.492 0
6 0 0 0.468 0
7 0 0 0.3 0
8 0 0 0.3 0
9 0 0 0.3 0
10 -0.35601 -0.174 0.492 0
11 0 0 0.3 0
12 0 0 0.3 0
13 0 0 0.468 0
14 0 0 0.3 0
15 0 0 0.3 0
16 1.711 -0.5 0.663 0
17 0 0 0.3 0
18 0 0 0.3 0
19 0 0 0.3 0
20 0 0 0.468 0
21 0 0 0.3 0
22 0 0 0.3 0
23 0 0 0.3 0
24 0 0 0.3 0
25 0 0 0.3 0
26 0 0 0.3 0
27 0 0 0.3 0
28 0 0 0.3 0
29 0 0 0.45 0
30 0 0 0.3 0
31 0 0 0.3 0
32 0 0 0.3 0
33 0 0 0.3 0
34 0 0 0.3 0
35 0 0 0.468 0
36 0 0 0.3 0
37 0 0 0.3 0
38 0 0 0.3 0
39 0 0 0.468 0

Atoms # full

4325 241 5 -0.18 5.8177363607131 4.560822100219816 1.7327654385327196 0 2 0
4336 241 16 0.06 6.3824120225587375 3.6176941224307146 1.5124670141124832 0 2 0
4335 241 15 0.06 6.519514104790828 5.353482756993783 1.7648688190590978 0 2 0
3315 185 3 -0.12 6.821094184350569 6.058545018010826 7.481913403322592 0 1 0
4322 241 2 -0.12 2.7675680941407794 6.0808371257289995 -0.35288121737906664 0 2 0
2062 115 10 0.06 3.955218783384355 1.6178932577713687 2.1281631651753936 0 0 0
3324 185 12 0.06 5.809692881648455 6.347337771125885 7.025623401292267 0 1 0
4337 241 17 0.06 5.357416576292046 4.462439507788978 2.7461748707117914 0 2 0
1502 84 8 0.06 6.715180650151872 1.7719513153295905 6.163868915738843 0 0 0
2063 115 11 0.06 3.2173484383287443 2.9280412637179243 2.8269552172806636 0 0 0
3328 185 16 0.06 7.073477995616551 8.531041245788668 8.581532290428411 0 1 0
3325 185 13 0.06 6.877576908575678 4.9698307635667565 7.409634975613598 0 1 0
2054 115 2 -0.12 3.080992502084265 1.8384237109835144 2.671619892625418 0 0 0
5389 300 7 0.06 0.8438240075649377 4.178596621814149 2.1474523471878864 1 -1 1
3313 185 1 -0.18 7.5799689065803815 6.373019247457757 5.115219174602784 0 1 0
5383 300 1 -0.18 0.043097176230523226 4.59018288016364 2.767981387520886 1 -1 1
4326 241 6 -0.6830000000000001 5.578544561942656 5.021064268145099 -0.4839765162823302 0 2 0
4329 241 9 0.06 1.2222685130894226 4.642795705120672 0.06099605336644487 0 2 0
4324 241 4 0.205 4.788684835909227 4.749827407890805 0.637937047084419 0 2 0
4334 241 14 0.06 4.381312497249009 3.7857319840251415 0.41546439081061726 0 2 0
2058 115 6 -0.6830000000000001 3.5093757817548843 2.7235441376884504 5.616296334426074 0 0 0
4332 241 12 0.06 3.01563891436596 5.543552744911673 1.722455000334166 0 2 0
4956 276 6 -0.6830000000000001 3.2142679454871663 12.989724534956864 9.388343526367201 2 1 0
1890 105 18 0.418 -0.2885656904332454 3.210312997741153 6.567806174263844 0 0 1
1887 105 15 0.06 2.65000532065136 3.434756222254532 8.584174841712384 0 0 1
4323 241 3 -0.12 3.6436633245536214 5.7848912675563815 0.86897191502404 0 2 0
3359 187 11 0.06 1.6371414758339062 5.587648785520502 6.4357401147163875 1 0 0
2070 115 18 0.418 2.5286953205441263 2.834145536266306 5.773589671916559 0 0 0
1878 105 6 -0.6830000000000001 0.5290063426185454 3.052254794787822 7.00813069311791 0 0 1
5191 289 7 0.06 -1.7961476800558134 6.284035977676899 5.012947425793706 1 1 0
4968 276 18 0.418 2.349811356426202 12.589283270278619 9.412591241998213 2 1 0
5391 300 9 0.06 0.4029975619291961 5.629205259496912 3.0767668061912046 1 -1 1
3350 187 2 -0.12 2.136382755349162 6.536911590865172 6.229859042056247 1 0 0
3358 187 10 0.06 1.3766615318828772 6.912309330072672 5.472218390603207 1 0 0
3355 187 7 0.06 3.4911412078011637 5.835261615169545 4.6515090091806055 1 0 0
3314 185 2 -0.12 7.843999688808102 6.729115806357677 6.508101039003177 0 1 0
3357 187 9 0.06 4.197431027552124 5.621178947015264 6.18592078397597 1 0 0
3319 185 7 0.06 7.635588786155495 5.295657073360216 4.982471243872003 0 1 0
3349 187 1 -0.18 3.555894093052366 6.253204092844148 5.632552196402251 1 0 0
5384 300 2 -0.12 -0.4747411462498343 3.663920953938718 3.8430599136892187 1 -1 1
5395 300 13 0.06 -1.0517719581880653 2.0401036341222705 2.4658393898517184 1 -1 1
1886 105 14 0.06 0.1413540184350719 4.406610019316009 8.421197625499577 0 0 1
1875 105 3 -0.12 -0.7940673720289453 2.54652354584755 8.893879202944923 0 0 1
1876 105 4 0.205 0.437195790745867 3.3310842990596115 8.4007586932615 0 0 1
3323 185 11 0.06 7.8939413812645345 7.88883787204914 6.495905720789585 0 1 0
3320 185 8 0.06 6.644792891737092 6.76405187154701 4.778761141431407 0 1 0
482 27 14 0.06 7.12387205438724 2.6677254367397776 -0.38799060527121254 -1 1 1
1885 105 13 0.06 -0.9439984639225549 1.670557874279877 8.25617098417149 0 0 1
4330 241 10 0.06 2.2014980491869496 6.859375013532921 0.05245662636608617 0 2 0
1889 105 17 0.06 1.8732716070518065 1.8140292980999266 8.65266158263364 0 0 1
1877 105 5 -0.18 1.7666544124429526 2.855593223048226 8.908725671164664 0 0 1
3182 177 14 0.06 -0.8178704321856589 10.568475222868585 9.009513786447798 1 0 0
5392 300 10 0.06 0.4132752690996133 3.199517631724748 4.24451231210499 1 -1 1
3362 187 14 0.06 0.10621080709411412 6.9434278065750785 8.091731701950534 1 0 0
3316 185 4 0.205 6.908420959241667 6.464299507514107 8.946777459679808 0 1 0
5197 289 13 0.06 -1.5634527512977838 6.864739560039832 2.39530000611185 1 1 0
3330 185 18 0.418 8.379711199712991 5.356255652584558 9.42330017644256 0 1 0
1496 84 2 -0.12 7.960269565862513 1.6445346436796988 8.003083200606525 0 0 0
4333 241 13 0.06 4.079758279225592 6.721324986310709 1.1535612327483624 0 2 0
2463 137 15 0.06 -1.8629245557625396 13.606599310621261 1.7730466851062596 0 0 1
5194 289 10 0.06 -1.168426597564373 8.398196903977908 4.276569318701159 1 1 0
3360 187 12 0.06 2.673574111636115 6.950082695959348 8.170772165609868 1 0 0
4964 276 14 0.06 4.484766293393855 13.579428407140783 7.8326203071220455 2 1 0
3356 187 8 0.06 4.102946722197901 7.2092896696913105 5.478680781367259 1 0 0
2061 115 9 0.06 1.103301868091625 1.4673602494515574 2.1782901390727796 0 0 0
1497 84 3 -0.12 6.857526262771403 2.0696943279619124 8.94405144390431 0 0 0
2053 115 1 -0.18 2.0644896103462678 1.411483557280639 1.6463166760336643 0 0 0
5385 300 3 -0.12 -1.430609802641415 2.6313214578137414 3.2707410237055594 1 -1 1
4081 227 13 0.06 3.5627890054935234 10.477681551762169 0.6585426772900669 1 0 -1
2059 115 7 0.06 2.1323576062312872 2.175318270813812 0.8774499811348244 0 0 0
3353 187 5 -0.18 -0.056289322719415225 8.707965532859395 6.870808352969241 1 0 0
3363 187 15 0.06 -0.002638592456073674 8.388781452867828 5.831527687946317 1 0 0
3352 187 4 0.205 0.7160484085996162 7.852882251167129 7.857185380932664 1 0 0
4515 251 15 0.06 7.073772629675453 10.221267214641724 4.720722108478015 0 -1 1
4075 227 7 0.06 2.8743024563967756 11.343068489280588 3.86986012013016 1 0 -1
2056 115 4 0.205 3.8269745582014387 1.4420926036009072 5.261011486722049 0 0 0
3365 187 17 0.06 0.30224733995262465 9.682664295315123 6.83543046066862 1 0 0
4072 227 4 0.205 5.234331963818266 9.176353276237117 0.6081224252267112 1 0 -1
4511 251 11 0.06 7.764025185662515 11.66637106005706 6.385808891705499 0 -1 1
4073 227 5 -0.18 6.320072977579919 10.24571080724355 0.41183127631435457 1 0 -1
3364 187 16 0.06 -1.1173494563026596 8.601908698247742 7.028632765073459 1 0 0
2066 115 14 0.06 4.8552991088093895 1.427052192346439 4.856269837491214 0 0 0
4085 227 17 0.06 7.335635426525668 9.764684779772907 0.42309969018126115 1 0 -1
2464 137 16 0.06 -0.18561323635153215 13.205497265343064 1.4729167479995269 0 0 1
4967 276 17 0.06 4.071384325009187 10.5829153341172 8.009260611104688 2 1 0
3329 185 17 0.06 5.42951651240068 8.080995861618263 9.092782626051815 0 1 0
4517 251 17 0.06 7.436777929187219 9.208981511503334 3.3756570329246514 0 -1 1
4965 276 15 0.06 5.210007670608671 11.429395867607644 7.1814523340464005 2 1 0
4077 227 9 0.06 2.8509540666764357 9.740481707958963 4.519148030404163 1 0 -1
4084 227 16 0.06 6.259001024521984 11.054921744774111 1.1801867486731754 1 0 -1
5399 300 17 0.06 -0.21836390398325634 1.2352967824232293 5.520746500865034 1 -1 1
5200 289 16 0.06 0.18262714441601657 8.80639594614328 1.2311414870439867 1 1 0
4962 276 12 0.06 1.847706421278922 12.076971180406021 7.45413648800163 2 1 0
3351 187 3 -0.12 2.1426027526030342 7.469439512998426 7.39168717694561 1 0 0
4953 276 3 -0.12 2.640673588281233 12.707371337220035 7.003750623204899 2 1 0
4505 251 5 -0.18 7.751956562758391 10.175131811107242 3.83416826439639 0 -1 1
4963 276 13 0.06 3.154577032729061 12.30300298241861 6.118558996964823 2 1 0
5393 300 11 0.06 -0.8970023434439571 4.222622096270856 4.64468400428875 1 -1 1
4080 227 12 0.06 3.2397131491251647 8.783632223933335 1.2253888681451726 1 0 -1
4079 227 11 0.06 4.754635740748701 9.146577315559359 3.191282632811023 1 0 -1
4082 227 14 0.06 5.669014796351595 8.346373734985075 1.1630856829837415 1 0 -1
4955 276 5 -0.18 4.627232889266315 11.54105929649829 8.050084670738203 2 1 0
4078 227 10 0.06 4.74143826081731 10.872792444557604 2.6166688564447917 1 0 -1
5933 330 11 0.06 6.254139192436853 13.093863366908304 3.133694692854956 1 0 1
4070 227 2 -0.12 4.171227402326266 9.973367634722747 2.715494629884009 1 0 -1
5390 300 8 0.06 -0.7409170847968145 4.89300337165099 2.1014917363026395 1 -1 1
3317 185 5 -0.18 6.505051413181388 7.934081426222456 9.243067002320172 0 1 0
5189 289 5 -0.18 -0.6852292778919642 9.465541774329187 1.538006358900025 1 1 0
4954 276 4 0.205 3.8003236127451316 12.78929201745583 8.100947628202306 2 1 0
4069 227 1 -0.18 2.927920280942322 10.26659753743765 3.541383293469777 1 0 -1
3361 187 13 0.06 2.697046276617871 8.320783678331644 7.13537231813772 1 0 0
5201 289 17 0.06 -0.5146141879085695 9.957838687525852 2.4670038270887624 1 1 0
4071 227 3 -0.12 3.9410956256599876 9.62318921475611 1.2583570792134164 1 0 -1
5199 289 15 0.06 -0.6376991104704888 10.19916219866023 0.7329079055785932 1 1 0
4076 227 8 0.06 2.0199790224016394 10.024515816627352 2.934502352154591 1 0 -1
4957 276 7 0.06 0.6240863709278281 13.257357310383927 4.858265251741774 2 1 0
3354 187 6 -0.6830000000000001 0.7279154475354139 8.662585933502783 8.960878702322042 1 0 0
4516 251 16 0.06 7.626313465252487 10.958292644984137 3.088790890390949 0 -1 1
1506 84 12 0.06 6.387640748705836 2.9744212016134517 8.651601192405165 0 0 0
3171 177 3 -0.12 -1.0126420817410342 12.775122564786876 9.24046109636625 1 0 0
3180 177 12 0.06 -0.35084427751571146 12.95116915767485 8.38562157375751 1 0 0
4966 276 16 0.06 5.1783819285213415 11.350071467211357 8.984648122586545 2 1 0
3318 185 6 -0.6830000000000001 8.206580832388902 6.299906810715776 9.362823846247716 0 1 0
1507 84 13 0.06 5.988117397586134 1.4194070482052081 8.742398612722885 0 0 0
4563 254 9 0.06 8.33557515816027 6.442867022318636 0.6801549409461018 0 0 0
3321 185 9 0.06 8.287524405926721 6.7257062448286495 4.442157587793121 0 1 0
4083 227 15 0.06 6.249599702040664 10.741609072293501 -0.5643263495190567 1 0 -1
5906 329 2 -0.12 2.9618846597580237 3.370759415881699 16.684830166255267 1 1 0
5915 329 11 0.06 4.01889172642249 3.4029600984350736 16.920874364484007 1 1 0
5914 329 10 0.06 2.4455261102084602 3.5035072769413897 17.608303194336564 1 1 0
5905 329 1 -0.18 2.580389750875449 2.065581708813163 15.970548292413174 1 1 0
5911 329 7 0.06 3.1470665799449034 1.9767505134160033 15.054644924087947 1 1 0
5907 329 3 -0.12 2.557096273630708 4.626370645350695 15.79177314074655 1 1 0
5917 329 13 0.06 1.4797869195050013 4.590661728444921 15.647400936185214 1 1 0
5912 329 8 0.06 2.830313459199421 1.2502198703189218 16.603207633167354 1 1 0
5909 329 5 -0.18 2.226365665153395 6.173803088855039 17.79205730673678 1 1 0
5913 329 9 0.06 1.5473165418997117 2.058101962092572 15.779712461586243 1 1 0
5908 329 4 0.205 2.885414252778257 5.986755579154131 16.411856518923692 1 1 0
5831 324 17 0.06 2.4407856929993335 4.364579478772316 11.501108448315064 1 0 0
5919 329 15 0.06 1.0967490631181254 5.985200561109833 17.893103180653874 1 1 0
2420 135 8 0.06 0.33464177836226217 4.276396005228833 12.316152428883006 -1 1 0
2413 135 1 -0.18 -0.6242882893228567 3.937433964677712 12.706470996348393 -1 1 0
1509 84 15 0.06 6.069331342475019 2.6988777262129506 12.364203742671203 0 0 0
1510 84 16 0.06 5.354241013709851 3.4607460116376894 10.968074484576745 0 0 0
1498 84 4 0.205 7.145828311925836 2.2753898361676863 10.419516108884775 0 0 0
1499 84 5 -0.18 5.865684953652869 2.524902569607601 11.297891439673643 0 0 0
5830 324 16 0.06 4.118339898136038 5.040401420164635 11.429646503120773 1 0 0
5819 324 5 -0.18 3.0540213760972375 5.274373515301392 11.182311610223906 1 0 0
5916 329 12 0.06 2.9755173350550157 4.478509225676833 14.798424298720837 1 1 0
5829 324 15 0.06 3.015763196724995 5.410173402162526 10.087118810137317 1 0 0
3005 167 17 0.06 6.359346614344069 5.107256198927389 13.912327358051877 0 0 1
1888 105 16 0.06 1.6167469170119166 2.86153433679199 10.001297131273725 0 0 1
5920 329 16 0.06 2.6920903002117518 5.554137750883181 18.50849643697563 1 1 0
5921 329 17 0.06 2.530565994495201 7.091277084172003 18.216017286798852 1 1 0
1247 70 5 -0.18 -1.70193681240892 8.167882426241857 13.664186901590613 0 0 0
2423 135 11 0.06 -1.2626204686703264 2.0447310819151205 13.608104092032626 -1 1 0
2414 135 2 -0.12 -0.36477824351336574 2.6932923287924586 13.524266722057728 -1 1 0
5139 286 9 0.06 -1.359314281283607 13.405837955466302 18.952340643754802 1 1 0
2425 135 13 0.06 1.657272426352765 2.3109636159305675 12.987673764897474 -1 1 0
4130 230 8 0.06 5.4357995299243305 13.396710187060112 15.008379234005885 1 0 0
2369 132 11 0.06 2.1405976370758664 12.067079176414328 18.776398589262172 0 0 1
2421 135 9 0.06 -1.233839937407597 3.601849257567753 11.827013831786134 -1 1 0
2424 135 12 0.06 0.6290140809785671 1.7713203513144142 11.835746524584055 -1 1 0
54 3 18 0.418 5.901095357926157 7.677676920911768 18.935394932970567 -1 1 0
5918 329 14 0.06 3.98170834293537 5.9920691741315535 16.628379014519755 1 1 0
5832 324 18 0.418 0.8896163368739716 7.407936568642945 12.191265287417778 1 0 0
3377 188 11 0.06 7.007028138719329 4.315876853778322 17.949170025875656 0 1 0
2419 135 7 0.06 -1.2777845817978575 4.745961626112191 13.146101166651894 -1 1 0
5818 324 4 0.205 2.580304819762733 6.538150189337505 11.944010561520779 1 0 0
5820 324 6 -0.6830000000000001 1.3238805498892359 6.941726147505041 11.415861091529223 1 0 0
800 45 8 0.06 7.564114639286855 13.545139741871017 19.257168730114575 0 1 0
3384 188 18 0.418 7.758941640243792 6.5906962346798865 18.53270999572694 0 1 0
3181 177 13 0.06 -0.7226495791672418 13.478362780768238 9.937323344623845 1 0 0
1245 70 3 -0.12 -0.9948524347221741 7.644885312243979 16.027375323989652 0 0 0
1252 70 10 0.06 -0.9643713435456281 5.539580938057235 16.152058297253483 0 0 0
1248 70 6 -0.6830000000000001 0.33163794413623693 7.107840856888032 14.125771689930028 0 0 0
1249 70 7 0.06 -1.7145650914038961 6.116056562406712 18.23061039846328 0 0 0
1260 70 18 0.418 1.1293018404598367 7.073802398713549 14.685116551273133 0 0 0
2996 167 8 0.06 7.259037589166031 11.492827387548251 14.93860726495149 0 0 1
1500 84 6 -0.6830000000000001 7.977828827295745 3.4290575458578663 10.52422294018744 0 0 0
3327 185 15 0.06 6.632814578386849 8.220594452712259 10.318786232661106 0 1 0
3003 167 15 0.06 6.421381192415774 5.985189821359373 15.389408388882531 0 0 1
2993 167 5 -0.18 6.230189165653515 6.052890923015646 14.315826801658348 0 0 1
3002 167 14 0.06 6.926173243453512 7.39004946275007 12.636063668401675 0 0 1
1761 98 15 0.06 -1.1401394237075761 2.133288960005681 17.077978507966698 1 1 1
5828 324 14 0.06 2.6300112797614172 6.327446873843827 13.01851342611848 1 0 0
1255 70 13 0.06 -0.18699045554638039 7.487325079358847 16.715527023875456 0 0 0
5827 324 13 0.06 4.377021113737427 7.568716202059885 11.921202256707275 1 0 0
2376 132 18 0.418 4.6243049572598025 8.880796735018505 17.10077798390019 0 0 1
3376 188 10 0.06 8.054999603320594 3.0023263877589197 18.313140189155312 0 1 0
1512 84 18 0.418 8.24516077568029 3.5341016227314492 11.413149071274457 0 0 0
3004 167 16 0.06 5.162546314550483 6.367075390130689 14.323096781824878 0 0 1
2365 132 7 0.06 -0.38978511107643987 10.197795184290339 18.751285115653946 0 0 1
2994 167 6 -0.6830000000000001 8.373744896533198 7.009883525960364 14.120767217272899 0 0 1
2992 167 4 0.205 7.016257735859698 7.239714321884371 13.71296345339822 0 0 1
5910 329 6 -0.6830000000000001 2.544701823039846 7.034097416807272 15.494706701935996 1 1 0
2359 132 1 -0.18 0.3976097111328083 10.803542499880129 19.177860516002756 0 0 1
689 39 5 -0.18 8.229312865846328 2.826722537732824 14.82257010372529 0 1 0
3368 188 2 -0.12 7.188540213573635 3.592769668125917 18.687503277357443 0 1 0
3174 177 6 -0.6830000000000001 0.7952523571493781 11.176674536337352 9.894869378231919 1 0 0
1258 70 16 0.06 -1.408594601231659 8.566438311400711 12.712466449135007 0 0 0
197 11 17 0.06 -0.4531347835610855 13.266934527450077 13.620221989826218 0 -1 1
196 11 16 0.06 -0.7517808507367303 13.527251246878091 15.357862917320437 0 -1 1
701 39 17 0.06 7.475856058123004 2.4303463786360333 14.127403290196503 0 1 0
5922 329 18 0.418 3.0504013254376208 7.8673215113542865 15.711995299613374 1 1 0
1884 105 12 0.06 -0.7387215704446268 2.0431806294537496 9.908215255267216 0 0 1
5823 324 9 0.06 4.81447412095756 9.803023611922772 12.127839913599674 1 0 0
3372 188 6 -0.6830000000000001 7.325308554642843 6.443981692459636 19.365565300637567 0 1 0
2415 135 3 -0.12 0.6940310985640714 1.846128721828144 12.919137501913879 -1 1 0
1511 84 17 0.06 5.1397803669356845 1.7287327765340228 11.2135347791642 0 0 0
3186 177 18 0.418 1.0094438763235156 10.296613218637479 9.717553162351253 1 0 0
3000 167 12 0.06 6.854647936300934 8.66141973574557 15.22813721918456 0 0 1
2360 132 2 -0.12 1.4716192889739732 11.351534372983966 18.19872272619926 0 0 1
2989 167 1 -0.18 7.075610578671121 11.239177727811628 13.840711724903304 0 0 1
5815 324 1 -0.18 3.784770620273262 10.194869594865308 11.994660694043533 1 0 0
3375 188 9 0.06 5.758085077663186 2.036192872292362 17.984483144977712 0 1 0
2373 132 15 0.06 4.191210307719065 11.719018199575236 15.106714158319143 0 0 1
2997 167 9 0.06 7.710108984065686 11.977777024171663 13.296618828409326 0 0 1
2362 132 4 0.205 3.51436557902848 10.49498790552584 16.847037656370134 0 0 1
5824 324 10 0.06 2.653332310049329 8.997433287893404 13.351965609434835 1 0 0
1254 70 12 0.06 -1.5430050458936602 8.473440772387981 16.519579868836203 0 0 0
2998 167 10 0.06 7.090629920852665 9.5927517619707 12.408633059864922 0 0 1
3367 188 1 -0.18 5.98816487609605 2.640937541757317 18.841703818048792 0 1 0
2990 167 2 -0.12 7.342000659316364 9.799182129338355 13.416196437656732 0 0 1
2375 132 17 0.06 2.858972209180769 12.490317374813948 15.911810039774743 0 0 1
2368 132 10 0.06 1.0529508125101028 11.811515112047884 17.294346466714035 0 0 1
2371 132 13 0.06 1.6156342583667564 9.386564516111084 17.149654143595498 0 0 1
2361 132 3 -0.12 2.2737245835748077 10.110928547985749 17.6694735105048 0 0 1
3374 188 8 0.06 5.040793481130842 3.2467748416892963 19.18140325005286 0 1 0
3172 177 4 0.205 -0.6230265379311999 11.373186109260606 9.752340962210363 1 0 0
2364 132 6 -0.6830000000000001 4.019337027521704 9.265156263640684 16.43572807114761 0 0 1
2372 132 14 0.06 4.098768627178916 11.069457516467459 17.563550633474623 0 0 1
2374 132 16 0.06 2.5332059080261127 11.028307207012244 14.967639950647397 0 0 1
3173 177 5 -0.18 -1.3132485172850838 11.00676743802855 11.114806645047299 1 0 0
1508 84 14 0.06 7.788077372080581 1.4570996476115263 10.840904389100174 0 0 0
2422 135 10 0.06 -0.055575593226856235 3.0201537926685478 14.462851003329467 -1 1 0
2370 132 12 0.06 2.7017095700083615 9.483509939440685 18.38966127147438 0 0 1
3183 177 15 0.06 -0.8658035332329732 10.101535196779157 11.393395483194201 1 0 0
1246 70 4 0.205 -0.5416425644779774 8.052512320299723 14.676090916501233 0 0 0
2995 167 7 0.06 6.033095929459949 11.468377293521586 13.478454562890349 0 0 1
3184 177 16 0.06 -1.2934329486345306 11.718076244343942 11.869281763490767 1 0 0
5826 324 12 0.06 3.4709123209155024 7.972079703641867 10.466186538897489 1 0 0
42 3 6 -0.6830000000000001 5.408340616769364 8.43636757862626 18.75202071556816 -1 1 0
3001 167 13 0.06 5.535310314630338 8.730662036982757 14.054669963323873 0 0 1
1256 70 14 0.06 -0.04882034176315719 8.999325901650462 14.821201626731083 0 0 0
5821 324 7 0.06 3.772300716186158 10.489128727288469 10.902234326343711 1 0 0
2991 167 3 -0.12 6.643237544533278 8.638707732290987 14.185859659522404 0 0 1
5817 324 3 -0.12 3.3950034307654544 7.7890121866144195 11.585467319733782 1 0 0
5825 324 11 0.06 1.8421610359880667 9.438490824586703 11.850546536567506 1 0 0
5816 324 2 -0.12 2.8047772668189683 9.094679141684788 12.28738701466867 1 0 0
2363 132 5 -0.18 3.27096596129717 11.45421300651581 15.646341275320694 0 0 1
5822 324 8 0.06 3.622297871740165 11.057907459697827 12.656311026440417 1 0 0
3366 187 18 0.418 0.8616089432539149 8.100627930604787 9.681946463465273 1 0 0
700 39 16 0.06 7.871390120288487 3.71985801848808 15.279280732884787 0 1 0
1244 70 2 -0.12 -1.7800835031349636 6.30644947410882 16.108200702412322 0 0 0
3326 185 14 0.06 6.210082817912781 5.823316453695414 9.514963668096103 0 1 0
1050 59 6 -0.6830000000000001 2.1329485623063977 2.3571160555599104 27.311850007661736 1 0 0
1048 59 4 0.205 2.043240419685161 2.839941587791548 25.952138651093303 1 0 0
1047 59 3 -0.12 3.4288101394556865 2.651011219807266 25.190753548842515 1 0 0
1049 59 5 -0.18 1.4387972094572739 4.208253987574327 25.954671875867877 1 0 0
1057 59 13 0.06 4.116918854495966 3.3178108907503727 25.70385139763376 1 0 0
1059 59 15 0.06 1.2864415239607658 4.567697710759946 24.96526956486322 1 0 0
1058 59 14 0.06 1.198687762787427 2.1524514498701235 25.43264367941099 1 0 0
3378 188 12 0.06 6.533013489550953 4.352548653740692 20.60364591325358 0 1 0
1046 59 2 -0.12 3.289683913261726 2.817410725564117 23.6517345816019 1 0 0
1045 59 1 -0.18 4.705209831726503 2.8849666315424534 22.983216654105725 1 0 0
1054 59 10 0.06 2.7471789040379306 3.7012370825811245 23.36248140964587 1 0 0
1061 59 17 0.06 2.2469090615678935 4.826756793498191 26.407294355725778 1 0 0
4242 236 12 0.06 4.526535532997484 2.1839754455014657 28.20480053384901 1 1 1
27 2 9 0.06 5.103353622555253 5.911327640426264 23.598252679085242 0 -1 -1
30 2 12 0.06 5.0882351073249446 5.687418593743819 27.200669679967017 0 -1 -1
19 2 1 -0.18 5.68134638962687 6.201867870964586 24.517296330202832 0 -1 -1
25 2 7 0.06 6.473135907991901 6.766179975102392 24.042960849822904 0 -1 -1
1060 59 16 0.06 0.46466324103469114 4.335337870314115 26.547142535453787 1 0 0
45 3 9 0.06 3.3514331125370385 7.592568187855831 23.413168912254395 -1 1 0
1062 59 18 0.418 1.234317906296258 2.285562114060709 27.68897492323159 1 0 0
1056 59 12 0.06 3.808372445916885 1.6455353478967896 25.41308247528964 1 0 0
26 2 8 0.06 6.183539619961895 5.324535486416526 24.926799689446515 0 -1 -1
4238 236 8 0.06 5.9880978995299925 2.8636326819469633 26.76906503270334 1 1 1
4248 236 18 0.418 3.045793227787345 3.617079558874988 28.35087528875561 1 1 1
803 45 11 0.06 8.341025095159136 12.194678273132984 21.341949761762073 0 1 0
2357 131 17 0.06 -0.4684108403856633 12.993558425885888 25.920230449864995 0 0 0
3369 188 3 -0.12 7.455261777783477 4.1831599558271355 20.07773044073011 0 1 0
5303 295 11 0.06 -0.3846719229508442 2.4511482866948993 20.231589273009877 0 -1 0
5562 309 18 0.418 -1.0852896997609294 1.8567386667069055 28.818725028250658 1 1 -1
4241 236 11 0.06 6.092065844772069 4.219285002541884 28.709615214577713 1 1 1
5305 295 13 0.06 -1.6811734600032597 3.582124878606921 22.670165641644562 0 -1 0
36 2 18 0.418 3.1759082340419997 6.461680592097144 28.583659011590218 0 -1 -1
29 2 11 0.06 3.8342553008837212 6.479575266003535 25.41014941828497 0 -1 -1
1053 59 9 0.06 4.402088335014331 2.796471959852667 21.953609962922098 1 0 0
572 32 14 0.06 3.899973030387658 13.382591514540321 27.395949028646093 -1 1 0
44 3 8 0.06 2.890980560401812 6.4012440776193325 22.235588276623442 -1 1 0
37 3 1 -0.18 2.869388738157327 7.504468324910763 22.48059228241729 -1 1 0
43 3 7 0.06 1.8201720532884562 7.724754916180941 22.678754667813372 -1 1 0
5299 295 7 0.06 1.1846189235547064 4.361600714364645 19.86179349535765 0 -1 0
4236 236 6 -0.6830000000000001 3.363705100156486 4.16308761001034 29.070862433940125 1 1 1
5304 295 12 0.06 -0.02777100539836308 3.0070009392707737 22.809552813561 0 -1 0
3379 188 13 0.06 8.034751898021096 3.470146107163071 20.685906034427667 0 1 0
5293 295 1 -0.18 0.6306643095547502 4.351120523457386 20.81826952371032 0 -1 0
1051 59 7 0.06 5.173711203271828 3.8295422181478918 23.085910953112876 1 0 0
3277 183 1 -0.18 -0.8670663959545435 7.005193145849876 23.766188063350388 0 0 -1
49 3 13 0.06 5.239459251599184 7.191833369936444 20.769318112508802 -1 1 0
21 2 3 -0.12 5.321504012741637 6.706638496915529 26.89218034403334 0 -1 -1
3288 183 12 0.06 1.3156027402503052 7.766749399067176 25.222450545822173 0 0 -1
1055 59 11 0.06 2.7560325621524475 1.9414691872219993 23.238412124857586 1 0 0
4489 250 7 0.06 7.421923809479377 9.02094054136196 23.810927988614367 1 0 0
38 3 2 -0.12 3.4044865834383904 8.279929435016356 21.299268171184472 -1 1 0
46 3 10 0.06 2.955600584062715 7.884459976197012 20.383691342639988 -1 1 0
5301 295 9 0.06 1.3136601157071817 4.084190879217976 21.59638346217909 0 -1 0
3286 183 10 0.06 -1.6219972650062298 7.6634552216386655 25.651124249745326 0 0 -1
5294 295 2 -0.12 -0.558663714873622 3.322980058142522 20.87597774806096 0 -1 0
3370 188 4 0.205 8.243119075808167 5.511420648825305 19.951902141673326 0 1 0
727 41 7 0.06 -0.35280751175939673 4.898664924592749 29.15076307631734 0 0 0
4239 236 9 0.06 7.661878181344937 3.593233758896073 27.16853064992116 1 1 1
22 2 4 0.205 4.66543662887229 7.581812933459702 27.990863654545894 0 -1 -1
576 32 18 0.418 4.959192754105193 11.247654276790978 28.05745298915488 -1 1 0
4231 236 1 -0.18 6.865585296860887 2.879233277040551 27.449337421904293 1 1 1
31 2 13 0.06 6.381463605532748 6.743853272818882 27.044977976822132 0 -1 -1
32 2 14 0.06 5.070016905843395 7.324079710927599 28.959971359391982 0 -1 -1
5550 309 6 -0.6830000000000001 -0.44561791692706776 1.586040931701202 28.197917239497052 1 1 -1
574 32 16 0.06 6.311059647130129 13.370932411471706 25.726673796430358 -1 1 0
4233 236 3 -0.12 5.002997766725259 2.4053005436244312 29.13944420456868 1 1 1
3278 183 2 -0.12 -0.7163369011219118 7.2816532051527165 25.311045251351242 0 0 -1
3383 188 17 0.06 8.074010477873129 5.6547487217052215 22.12428669294421 0 1 0
3373 188 7 0.06 6.0667358165283325 1.9395057568852478 19.599324391302247 0 1 0
4237 236 7 0.06 7.262205877809327 1.8846231301236078 27.50586266272288 1 1 1
2356 131 16 0.06 0.026732836138612326 13.068292206761962 27.447122602109616 0 0 0
2366 132 8 0.06 0.7841217322339462 10.055547296585226 19.9401572187694 0 0 1
3284 183 8 0.06 0.0605697040050488 6.643548300099935 23.434118064644068 0 0 -1
1052 59 8 0.06 5.379720774968787 1.997305624468205 23.191471879040588 1 0 0
564 32 6 -0.6830000000000001 5.337443674569576 12.113870580766399 27.925245567576695 -1 1 0
51 3 15 0.06 6.686076410888962 10.348933516849923 21.147028639470292 -1 1 0
3280 183 4 0.205 0.5770311860489721 8.551131055655992 27.13594471755327 0 0 -1
569 32 11 0.06 1.908064785369866 12.886849519377439 25.681999142119025 -1 1 0
20 2 2 -0.12 4.859953781121844 6.938230242359223 25.53103609622581 0 -1 -1
4491 250 9 0.06 6.755462238153676 10.305762534752608 24.89109079815388 1 0 0
35 2 17 0.06 4.514697141226592 9.41672692216734 26.833305010180503 0 -1 -1
47 3 11 0.06 3.0681884823092993 9.272539216215115 21.54001291073724 -1 1 0
5296 295 4 0.205 -1.4519588314358367 1.3907660008019462 22.290239937504804 0 -1 0
570 32 12 0.06 3.393589053204196 11.30579172007316 26.512660536957767 -1 1 0
3292 183 16 0.06 -1.5791010075898297 8.960102917153304 27.59608426933088 0 0 -1
28 2 10 0.06 4.823281985565166 8.024237931360314 25.380156153593322 0 -1 -1
3290 183 14 0.06 0.8118664563219231 7.629976595647068 27.770519022364176 0 0 -1
4483 250 1 -0.18 7.495047819761371 9.504805728805955 24.800633894578745 1 0 0
3281 183 5 -0.18 -0.6217141019812671 9.432167972122256 27.587959994478503 0 0 -1
41 3 5 -0.18 6.548862729690722 10.000130026587629 20.12048185808216 -1 1 0
24 2 6 -0.6830000000000001 3.2825748796476404 7.315475548401477 28.1233228891912 0 -1 -1
3294 183 18 0.418 2.312023253193906 8.84652009570679 27.609880772873428 0 0 -1
34 2 16 0.06 6.022352186557586 9.30365507824238 27.783294071068347 0 -1 -1
560 32 2 -0.12 2.821868597590128 12.635889294030822 25.007461481395147 -1 1 0
559 32 1 -0.18 2.497750856408598 11.821906977275772 23.75878054788237 -1 1 0
4490 250 8 0.06 7.199814296007652 8.794849993980861 25.530288643346616 1 0 0
3291 183 15 0.06 -0.7443360705164332 10.361705694412418 27.057083028910093 0 0 -1
3289 183 13 0.06 0.4399142162170704 9.236696137041637 25.170453569887833 0 0 -1