LAMMPS data file via write_data, version 29 Aug 2024, timestep = 1000000, units = real

6144 atoms
12 atom types
5632 bonds
11 bond types
9216 angles
18 angle types
8192 dihedrals
16 dihedral types
3072 impropers
6 improper types

1.991744933734097 43.00825506626504 xlo xhi
1.991744933734097 43.00825506626504 ylo yhi
1.991744933734097 43.00825506626504 zlo zhi

Masses

1 12.011
2 14.007
3 12.011
4 12.011
5 15.999
6 1.008
7 1.008
8 1.008
9 1.008
10 1.008
11 1.008
12 1.008

Pair Coeffs # lj/cut/coul/long

1 0.066 3.5
2 0.17 3.25
3 0.066 3.5
4 0.105 3.75
5 0.21 2.96
6 0.03 2.5
7 0.03 2.5
8 0.03 2.5
9 0.03 2.5
10 0.03 2.5
11 0.03 2.5
12 0.015 2.42

Bond Coeffs # harmonic

1 337 1.449
2 337 1.449
3 490 1.335
4 570 1.229
5 340 1.09
6 340 1.09
7 340 1.09
8 340 1.09
9 340 1.09
10 340 1.09
11 340 1.09

Angle Coeffs # harmonic

1 50 118
2 50 121.9
3 80 122.9
4 35 109.5
5 35 109.5
6 35 109.5
7 35 109.5
8 35 109.5
9 35 109.5
10 40 114
11 35 123
12 33 107.8
13 33 107.8
14 33 107.8
15 50 121.9
16 33 107.8
17 33 107.8
18 33 107.8

Dihedral Coeffs # opls

1 0 6.089 0 0
2 0 0 0 0
3 0 0 0 0
4 2.3 6.089 0 0
5 0 0 -0.139 0
6 0 0 0 0
7 0 0 0 0
8 2.3 6.089 0 0
9 0 0 -0.139 0
10 0 0 -0.139 0
11 0 0 0 0
12 0 0 -0.139 0
13 0 6.089 0 0
14 0 0 0 0
15 0 0 -0.139 0
16 0 0 -0.139 0

Improper Coeffs # cvff

1 1 -1 2
2 0 -1 2
3 0 -1 2
4 0 -1 2
5 0 -1 2
6 10.5 -1 2

Atoms # full

3067 256 7 0.06 8.158694780311414 8.846379112124705 6.099674159572642 -2 0 0
3070 256 10 0.06 10.912413125082686 6.68190185606723 6.281305291295277 -2 0 0
2368 198 4 0.5 3.8195780563506956 8.838085852056452 4.853670746454128 2 -1 1
5503 459 7 0.06 8.671152883773381 11.343678039003631 4.687659418868448 1 1 0
3066 256 6 0.06 8.676443496320118 7.676538887941761 4.978252939680679 -2 0 0
4180 349 4 0.5 11.560767646744596 9.726078346216418 3.7221474725231625 0 -1 -2
4989 416 9 0.06 4.411384933485669 5.161997146535873 6.10332788965096 0 -1 -1
4179 349 3 -0.11 10.95197044302867 7.528072221752908 2.816476757747264 0 -1 -2
2371 198 7 0.06 2.6210027540596834 9.95615508521802 2.9533425015409627 2 -1 1
2367 198 3 -0.11 5.35994229292981 7.847487039674278 3.1283558339570217 2 -1 1
856 72 4 0.5 12.110063113971053 3.5653713205553155 5.8934616576524625 0 0 2
2374 198 10 0.06 4.901068442364165 7.082692006984721 2.4094291898258313 2 -1 1
4181 349 5 -0.5 11.406399498922172 9.339390765570393 4.889043516486274 0 -1 -2
4188 349 12 0 12.074322552638147 10.692207360165554 3.5393750886586117 0 -1 -2
4988 416 8 0.06 2.9957621165586015 4.175984405414156 4.496983697138379 0 -1 -1
5497 459 1 -0.11 7.997736111499195 11.250003289927916 3.7490141146360667 1 1 0
3061 256 1 -0.11 8.173110604750498 7.7651371589498694 5.873449581623307 -2 0 0
4986 416 6 0.06 2.8348647157772193 3.179049520147265 5.845155485447803 0 -1 -1
4984 416 4 0.5 5.714189422436463 2.4586238934494897 5.105621844451877 0 -1 -1
2376 198 12 0 2.93045337431549 9.43282320861718 5.009215655928781 2 -1 1
4981 416 1 -0.11 3.45321605172379 3.3095527493598897 4.983164248330658 0 -1 -1
2366 198 2 -0.14 4.240025242994635 8.719080438756947 3.582794078054209 2 -1 1
4990 416 10 0.06 5.268923586376654 5.271826682921565 4.517871138234961 0 -1 -1
4916 410 8 0.06 10.581097212249826 11.595449477127499 6.455354898036813 0 0 1
4983 416 3 -0.11 5.207328493653039 4.79685901614277 5.462504978671294 0 -1 -1
4991 416 11 0.06 6.173378431314902 4.911990914447875 5.942386628972201 0 -1 -1
4985 416 5 -0.5 6.899394504241369 2.657472471886039 5.150798483390639 0 -1 -1
4187 349 11 0.06 10.112408153379082 7.419680332609071 3.4856609183373637 0 -1 -2
3496 292 4 0.5 8.722264560794294 5.090372752416588 2.0157297255650994 0 -3 2
2369 198 5 -0.5 4.393615503705171 8.21136631151461 5.745369380802823 2 -1 1
3062 256 2 -0.14 8.844586425386893 6.89371191046867 6.837879625614478 -2 0 0
4178 349 2 -0.14 11.335711711913897 8.949285119101209 2.6186685383407413 0 -1 -2
3068 256 8 0.06 7.155788454006408 7.524462447364259 5.6597700714997625 -2 0 0
5508 459 12 0 6.943720289059325 11.377355077762783 5.981121163540928 1 1 0
857 72 5 -0.5 11.883335384067525 3.9633620478877933 4.725918244565481 0 0 2
3071 256 11 0.06 9.790019659620121 5.662961643123783 5.378525572554847 -2 0 0
2373 198 9 0.06 5.983116351431887 8.557083584675402 2.4991716294376114 2 -1 1
5502 459 6 0.06 7.986522963855354 10.171272889365763 3.5853548359468848 1 1 0
5504 459 8 0.06 8.476205941754113 11.83680873239185 2.9774926925929748 1 1 0
3063 256 3 -0.11 10.001630927540258 6.083887697239061 6.3542530745387955 -2 0 0
5498 459 2 -0.14 6.691483947918932 11.628664744793458 3.959617078194529 1 1 0
4982 416 2 -0.14 4.8345775273592055 3.4418848618250895 5.36152011428498 0 -1 -1
4379 365 11 0.06 2.4326950919856114 6.047252248855008 6.4824272159393495 1 0 1
2365 198 1 -0.11 3.4752530743193555 9.447949883952209 2.545666665003564 2 -1 1
5500 459 4 0.5 6.254037266129532 11.63926693413906 5.2235585545754235 1 1 0
3504 292 12 0 9.39189924008858 5.383156072118973 2.9024038194077417 0 -3 2
4185 349 9 0.06 11.730317428256798 6.85230022973891 3.122566033140478 0 -1 -2
2372 198 8 0.06 3.042250654844767 8.551442472408889 2.021214372752065 2 -1 1
5499 459 3 -0.11 5.923556353253011 12.017195884580898 2.7213518963264702 1 1 0
5505 459 9 0.06 4.844110425176632 12.132858711309352 2.8548781648381407 1 1 0
4987 416 7 0.06 3.3339151866883583 2.39828956990265 4.383066302910526 0 -1 -1
5501 459 5 -0.5 5.113432627093813 12.064087531233149 5.4984822657787715 1 1 0
3499 292 7 0.06 10.949702527682648 3.8365613062842003 2.4124713245623726 0 -3 2
3498 292 6 0.06 10.007523051299088 2.341786203010653 2.161535301453497 0 -3 2
2375 198 11 0.06 6.076520685089211 7.478218510437269 3.8391757507986832 2 -1 1
864 72 12 0 12.094227274414868 4.278788065658473 6.688873299544352 0 0 2
5606 468 2 -0.14 6.5722397699444866 5.588503721703104 12.04941912884544 2 0 -1
4100 342 8 0.06 5.166397042580675 10.711536307875873 7.974546446973276 0 1 0
4917 410 9 0.06 12.209398765756381 9.88961015361082 9.283220633940019 0 0 1
4094 342 2 -0.14 3.737214116663319 10.912186416156796 9.522903298506973 0 1 0
5609 468 5 -0.5 5.0274552096631595 4.165550266188745 11.315900811886737 2 0 -1
4093 342 1 -0.11 4.1822119131298905 10.270472708360723 8.249429425227397 0 1 0
4380 365 12 0 2.790749553343387 7.079355780626888 10.179894213792123 1 0 1
4370 365 2 -0.14 2.407167073611676 5.923163716046348 8.545537111264089 1 0 1
4102 342 10 0.06 3.4737209279118857 10.54731500307607 11.551121323476357 0 1 0
4372 365 4 0.5 2.322362784352133 7.124343260938134 9.201714874549053 1 0 1
4374 365 6 0.06 4.093214353350285 4.717350647225949 9.054095409567154 1 0 1
4369 365 1 -0.11 2.972862451528559 4.777758771723352 9.173250358616059 1 0 1
4375 365 7 0.06 2.4601778819053366 3.8554937398212354 8.918790770934699 1 0 1
4914 410 6 0.06 10.58439220608644 11.767313792822376 8.277743921991142 0 0 1
3065 256 5 -0.5 9.357886605011924 6.483228217580882 9.05335573738082 -2 0 0
4101 342 9 0.06 3.4227766728402544 9.18047793177503 10.611983373634336 0 1 0
4095 342 3 -0.11 3.959194190021641 10.126232946551253 10.712712533400403 0 1 0
1106 93 2 -0.14 7.750442027915587 2.2826440555470935 8.329601290491432 2 -1 0
4099 342 7 0.06 4.368024124456179 9.249241322099389 8.301364124361983 0 1 0
4557 380 9 0.06 7.6115398429249455 9.893347751427324 9.801876371025806 -1 1 0
4098 342 6 0.06 3.4370932050332117 10.546440773830264 7.478319988929464 0 1 0
4096 342 4 0.5 3.3570381562390263 12.162068976808976 9.568240097728024 0 1 0
5613 468 9 0.06 5.806472996701676 7.551120952913085 11.711803339900875 2 0 -1
5608 468 4 0.5 5.878205730790073 4.377082351302606 12.155099422729698 2 0 -1
4552 380 4 0.5 7.481415089945854 11.325963296504224 12.038178498631677 -1 1 0
4103 342 11 0.06 5.038070793783632 9.95129576495269 10.915678928356472 0 1 0
5615 468 11 0.06 6.977484370117491 6.981262379753031 10.457060557987035 2 0 -1
3072 256 12 0 8.064761447644907 7.920720542514701 8.396544420617719 -2 0 0
4376 365 8 0.06 2.7466767454089425 4.709844631335035 10.269213506428517 1 0 1
1105 93 1 -0.11 7.314032308529841 3.699105255069494 8.239174997355311 2 -1 0
3064 256 4 0.5 8.721905572827515 7.114108822588539 8.202467807901414 -2 0 0
4558 380 10 0.06 9.152574299416273 9.018967811980016 10.309078044956376 -1 1 0
3670 306 10 0.06 10.039450960801604 2.275094619173583 11.032032108600605 2 0 0
1111 93 7 0.06 7.483059707814937 4.158072838149193 9.267491216883059 2 -1 0
4909 410 1 -0.11 11.04710918209032 11.252108143819923 7.415333455736546 0 0 1
4898 409 2 -0.14 12.19262486457588 5.912477423247286 11.062725498154352 -1 1 -1
1112 93 8 0.06 6.239706058589954 3.7126886119699005 7.918279700199572 2 -1 0
5610 468 6 0.06 8.699527514294402 6.285471012322796 12.138045748042831 2 0 -1
4908 409 12 0 11.518109833242073 4.086284923220866 11.506415499077843 -1 1 -1
859 72 7 0.06 11.994558106239355 2.287977733419884 8.302597721380668 0 0 2
4559 380 11 0.06 9.124773933342173 10.669753410363016 9.944176377711765 -1 1 0
4900 409 4 0.5 11.944497074790691 4.666127171772024 10.753013665427684 -1 1 -1
5614 468 10 0.06 5.213029243568624 6.504716578171658 10.58067447164148 2 0 -1
4551 380 3 -0.11 8.548254620987834 9.899322640374358 10.460207537345262 -1 1 0
4553 380 5 -0.5 6.9705840067276545 11.942468926697753 11.081227755885076 -1 1 0
5607 468 3 -0.11 6.133374091495313 6.720816982821662 11.162782863870651 2 0 -1
1116 93 12 0 9.584995751184886 3.01043457711342 8.309676286040776 2 -1 0
3669 306 9 0.06 8.388865584359404 2.4152194531868805 11.458334412887346 2 0 0
4550 380 2 -0.14 8.288631863925145 10.273711119610574 11.83684270432132 -1 1 0
4915 410 7 0.06 10.8168413370218 10.241625546923343 7.420734070573885 0 0 1
1110 93 6 0.06 7.8138294723733654 4.237709339318782 7.452698070885432 2 -1 0
4907 409 11 0.06 12.046060875649436 7.794733569436712 9.944731992579559 -1 1 -1
6059 505 11 0.06 2.6747910637636405 2.212991057418705 10.877839424486885 -1 1 -1
3069 256 9 0.06 10.24468725509836 5.2986883212364155 7.139381731342763 -2 0 0
2787 233 3 -0.11 9.747595378228734 4.762772847440253 17.28319634726283 2 1 -1
4716 393 12 0 5.8730030036719665 10.582548537719239 14.578673754854597 1 2 1
5616 468 12 0 6.242205782713287 3.628466254503755 12.851945473037002 2 0 -1
4850 405 2 -0.14 3.0471699987564116 5.142999827560613 14.239428129959329 1 1 -1
2790 233 6 0.06 6.923900859194943 6.343051477650731 16.36959673647629 2 1 -1
2788 233 4 0.5 9.399169185278879 6.767094615481604 15.86363635513357 2 1 -1
4709 393 5 -0.5 6.360756175237685 8.536679770840461 14.78386860181246 1 2 1
4854 405 6 0.06 4.736621520264994 4.1832928112022305 14.973033285368679 1 1 -1
4859 405 11 0.06 2.1056537106761803 7.028693943177509 14.197527351081224 1 1 -1
2329 195 1 -0.11 2.280683665710354 11.4353761538713 14.014593596127012 2 0 0
4706 393 2 -0.14 6.120598712961786 9.98253163009047 16.458098017492993 1 2 1
4857 405 9 0.06 3.640761102585989 6.811413736775128 13.287769880989321 1 1 -1
4712 393 8 0.06 5.558955820229484 11.972435678711767 16.199205490811185 1 2 1
2785 233 1 -0.11 7.467483597275009 5.510836090328617 16.598528423345677 2 1 -1
2304 192 12 0 11.058981581935477 11.733023684541106 13.953452291219433 2 0 -1
2789 233 5 -0.5 10.546485394517122 7.131049779463349 15.873047129289915 2 1 -1
4849 405 1 -0.11 3.711783952187108 4.348352067682625 15.319015805590725 1 1 -1
4705 393 1 -0.11 6.2026201612226615 11.373446836999848 16.83469634244111 1 2 1
2786 233 2 -0.14 8.886560368334846 5.758511720729491 16.61816413426824 2 1 -1
5611 468 7 0.06 8.326065031533556 4.661095439599142 12.759023441952957 2 0 -1
4708 393 4 0.5 6.071236426641532 9.689117149004943 15.176292465309983 1 2 1
5612 468 8 0.06 7.696814104803588 5.970553741197448 13.60367192484804 2 0 -1
4852 405 4 0.5 2.182889661013551 4.547490349531984 13.344293250517191 1 1 -1
4556 380 8 0.06 8.821474535519005 10.3361498894883 13.87206520191841 -1 1 0
4858 405 10 0.06 3.6122917620818273 7.105318851884106 15.020610302181627 1 1 -1
4555 380 7 0.06 8.524503753825513 8.650661995708013 13.306438510619396 -1 1 0
5467 456 7 0.06 9.689307411767764 10.727798517430836 17.232929737921275 -1 -1 2
4902 409 6 0.06 10.789132020026567 6.533328171982756 12.66137179524369 -1 1 -1
3671 306 11 0.06 9.550005329941452 2.3565753987831903 12.738145926618596 2 0 0
2796 233 12 0 8.697562014813077 7.357889042968911 15.25652938366617 2 1 -1
2792 233 8 0.06 7.216490391629505 4.674750305119909 15.911018888026144 2 1 -1
4897 409 1 -0.11 11.791523469163094 6.3317962081076775 12.442203337921555 -1 1 -1
2336 195 8 0.06 3.3156902457168522 11.031751218415575 14.130271237550268 2 0 0
4855 405 7 0.06 3.255795430616037 3.4377786731323994 15.625871005942832 1 1 -1
4554 380 6 0.06 9.982379868473695 9.430114644775317 12.756272106647232 -1 1 0
4549 380 1 -0.11 8.944613769644175 9.671989513944943 13.019083364692461 -1 1 0
4560 380 12 0 7.277454067254585 11.577420905733764 13.113977987697634 -1 1 0
4851 405 3 -0.11 3.1015281139495823 6.590684308234138 14.202440589977103 1 1 -1
2297 192 5 -0.5 11.953917618476323 12.116545026422664 15.762446774732291 2 0 -1
5468 456 8 0.06 10.842833055671369 9.507402209255147 17.273789705564102 -1 -1 2
4856 405 8 0.06 3.748160838865658 4.885762312945101 16.250515271247977 1 1 -1
5605 468 1 -0.11 7.934300504204996 5.636844508754759 12.568993436169617 2 0 -1
4710 393 6 0.06 7.1967567141309114 11.7975902052898 16.65202729090086 1 2 1
2793 233 9 0.06 9.868396755599402 3.7783300621391005 16.695468723144273 2 1 -1
2339 195 11 0.06 3.191163870655014 11.877456804876902 17.016604531563893 2 0 0
4714 393 10 0.06 5.706110856906845 7.897567672868301 17.181903304077395 1 2 1
4860 405 12 0 2.051660907910682 3.4594327917755088 13.464215049316225 1 1 -1
438 37 6 0.06 4.521692624012237 10.054982054887095 20.131683841657626 1 0 2
1452 121 12 0 5.560962881958284 3.962953715739694 21.22271062390627 0 1 -2
1099 92 7 0.06 3.0370922493029946 6.4900949215031964 20.171612036472236 1 -2 -1
433 37 1 -0.11 5.022464087069691 10.56673691492875 21.008980673624887 1 0 2
4707 393 3 -0.11 5.939381834675345 8.934097934593972 17.477599231003925 1 2 1
1093 92 1 -0.11 2.2931633488019676 6.287557621799606 19.39384353209375 1 -2 -1
912 76 12 0 9.221861929821989 2.915965516534411 20.772860242456645 1 0 -1
5466 456 6 0.06 11.169955754025162 11.025976166149846 17.979415804217822 -1 -1 2
3429 286 9 0.06 10.58973163868156 4.202535218242367 22.085141733288683 1 0 -1
5462 456 2 -0.14 9.843162146640415 9.928787286749454 19.086489292326505 -1 -1 2
4713 393 9 0.06 6.890198491992356 9.112396033732114 17.945472987529136 1 2 1
5470 456 10 0.06 10.667711814742567 11.343913119978925 20.427578414206728 -1 -1 2
2794 233 10 0.06 9.205247441825131 4.598384818104737 18.248923783218746 2 1 -1
439 37 7 0.06 6.100698877081354 10.28425198494164 21.02888383126638 1 0 2
5465 456 5 -0.5 9.537952659232367 8.337154875387242 20.54990362441303 -1 -1 2
5464 456 4 0.5 9.8096657724064 8.63861723509882 19.37430543607207 -1 -1 2
6079 507 7 0.06 12.096324680593657 5.084126701844745 20.09674783300937 0 3 -1
442 37 10 0.06 2.1369180748128698 9.964379460539625 21.265525804890338 1 0 2
2791 233 7 0.06 7.128528884633701 5.16161879625659 17.597389949932342 2 1 -1
440 37 8 0.06 4.893061713107192 11.61187659517836 20.850106845618676 1 0 2
1450 121 10 0.06 6.82905232510755 7.508596528488869 21.05172242547686 0 1 -2
905 76 5 -0.5 10.689812312401811 2.606022524464544 19.35440023457616 1 0 -1
904 76 4 0.5 9.570585712855944 2.485458469309044 19.853333056703512 1 0 -1
435 37 3 -0.11 2.946996817884561 9.468431663970527 21.85493681861335 1 0 2
6078 507 6 0.06 11.498932630448564 6.6426930437682365 20.552976721675645 0 3 -1
906 76 6 0.06 7.1682779617038825 2.0595104641112405 20.922885444531115 1 0 -1
5469 456 9 0.06 9.152635776481873 11.814759715425271 19.49059787293702 -1 -1 2
1442 121 2 -0.14 5.906732146284307 5.824601709266793 22.014185113877986 0 1 -2
1451 121 11 0.06 7.696217402624701 6.811650056347899 22.484408683625137 0 1 -2
1444 121 4 0.5 6.2487604046234875 4.8410011908094654 21.19505715143554 0 1 -2
1445 121 5 -0.5 7.298942645986745 4.793784011314231 20.52319860612876 0 1 -2
1098 92 6 0.06 2.7416435281463656 5.420977624042001 18.86027684876232 1 -2 -1
4711 393 7 0.06 5.976215118815992 11.56578826690156 17.86135269872957 1 2 1
5461 456 1 -0.11 10.464682787195443 10.300618187868114 17.81970204038474 -1 -1 2
434 37 2 -0.14 4.2210299862773475 10.174326809933806 22.181712123724807 1 0 2
5472 456 12 0 10.213217839542779 7.970833954284354 18.585420950297788 -1 -1 2
5345 446 5 -0.5 3.344191146617936 2.253989140124422 19.497851488641324 0 2 -1
5352 446 12 0 4.1977045511835875 2.184723825925851 21.319848561758405 0 2 -1
5463 456 3 -0.11 9.690986323646511 11.017431671713423 20.040086493260365 -1 -1 2
1443 121 3 -0.11 6.704123560790409 7.019772186661043 22.073073106534334 0 1 -2
441 37 9 0.06 3.1516965214300408 8.631494416026005 21.203425517137642 1 0 2
5471 456 11 0.06 8.997636300994575 10.794909505821632 20.821946597859732 -1 -1 2
3430 286 10 0.06 9.658490274811088 5.577818996749031 21.96042334975857 1 0 -1
4715 393 11 0.06 5.200486658497503 9.227396503476538 18.176779026139414 1 2 1
1100 92 8 0.06 2.0043022026078665 7.198527350646473 18.887503964183466 1 -2 -1
2795 233 11 0.06 10.727800125554072 5.179214022222055 17.439545489542652 2 1 -1
1447 121 7 0.06 3.9224371979313357 6.454204440119847 22.41428399080583 0 1 -2
3800 317 8 0.06 3.089046875846191 11.127279594714608 26.943955651793193 -1 -1 0
3432 286 12 0 9.612816028958493 6.1485203301395925 25.644998356259478 1 0 -1
4298 359 2 -0.14 5.795043180466685 2.3390354723650266 25.80777643172532 0 3 0
2357 197 5 -0.5 10.73884213422807 3.050452921575241 26.641308503388892 1 0 -2
4586 383 2 -0.14 10.025004775081948 10.762002424225367 24.420363185297553 -1 0 -2
4300 359 4 0.5 6.203118635087683 2.375279367159829 24.540291657498138 0 3 0
4304 359 8 0.06 5.283558900024268 4.241263127742796 26.528966539889602 0 3 0
436 37 4 0.5 4.622546763653586 10.444469980836338 23.41799029412422 1 0 2
4593 383 9 0.06 9.207817914420687 9.698379808757371 22.762131285991128 -1 0 -2
4596 383 12 0 11.763911927334465 10.244076985945005 25.34197909008585 -1 0 -2
1449 121 9 0.06 6.2696670536680825 7.754491478883301 22.74618555442075 0 1 -2
3428 286 8 0.06 11.615057962724098 5.473134204762277 25.371443426845083 1 0 -1
4594 383 10 0.06 8.299276784918405 11.187987611211174 23.154909127651774 -1 0 -2
3598 300 10 0.06 6.397223228929753 10.085598772977526 26.033146602496245 -2 1 -1
681 57 9 0.06 11.97719100195514 7.863989818038674 26.573643902739743 0 1 0
4592 383 8 0.06 10.208649282446105 11.958935823635326 26.086840222711576 -1 0 -2
437 37 5 -0.5 3.908929560377846 10.180661536750137 24.401767146641706 1 0 2
5346 446 6 0.06 2.621694672692031 2.4798885817889444 23.2859238796323 0 2 -1
4302 359 6 0.06 6.994961413813254 3.803404082591044 26.737550875537853 0 3 0
4588 383 4 0.5 11.060064290837582 9.895409439922329 24.54685666151927 -1 0 -2
1441 121 1 -0.11 4.67264511364913 5.825569959550252 22.84744441208056 0 1 -2
4585 383 1 -0.11 10.052901499893267 12.070634163056669 25.008585002823718 -1 0 -2
3421 286 1 -0.11 11.460670698917097 5.123614781601813 24.37000628404535 1 0 -1
4587 383 3 -0.11 8.92856025066257 10.348095426773595 23.584899530447384 -1 0 -2
444 37 12 0 5.596894095329281 11.024246781916407 23.521599451207635 1 0 2
3424 286 4 0.5 9.119228140939622 5.809248387971211 24.741506176135236 1 0 -1
443 37 11 0.06 2.488076497405931 9.079080572136881 22.731353175771353 1 0 2
3591 300 3 -0.11 6.519317900717885 9.813817260390518 27.039010359220768 -2 1 -1
3425 286 5 -0.5 7.886736221174896 5.667903486089692 24.58397063864619 1 0 -1
4297 359 1 -0.11 5.973758575642016 3.426702679108775 26.75287394942821 0 3 0
3793 317 1 -0.11 2.9628659326392 11.971114393337222 27.620971084533878 -1 -1 0
4595 383 11 0.06 8.22916490017581 9.668582584646748 24.210264660579394 -1 0 -2
3597 300 9 0.06 6.953132666290503 8.762548400495234 27.016215356480053 -2 1 -1
1448 121 8 0.06 4.826071349918047 6.003201508561429 23.940944019133475 0 1 -2
4589 383 5 -0.5 11.126305718915498 8.73610537254792 24.12087725681809 -1 0 -2
3422 286 2 -0.14 10.045495359827104 5.274418472774609 23.92248533162249 1 0 -1
1446 121 6 0.06 4.252428311578335 4.789114844198719 22.955415786911086 0 1 -2
4308 359 12 0 6.709175512284254 3.2381464267077655 24.190123876652294 0 3 0
3427 286 7 0.06 11.84632612002568 4.094981158719077 24.452573666058036 1 0 -1
2361 197 9 0.06 9.607531891999358 2.3367588272128885 23.95901679517307 1 0 -2
3599 300 11 0.06 5.54077372846938 9.743194128237029 27.540446518233413 -2 1 -1
2356 197 4 0.5 9.954346213294137 2.1122363458145608 26.811424265642454 1 0 -2
3589 300 1 -0.11 7.325751750593026 12.141053744094815 27.56067466696398 -2 1 -1
3431 286 11 0.06 8.972618149145152 4.0883021026434845 22.5390534065077 1 0 -1
3596 300 8 0.06 7.224265415217417 12.236675919859366 26.49909178295025 -2 1 -1
3423 286 3 -0.11 9.809669394587315 4.771574381038673 22.589597919958774 1 0 -1
3426 286 6 0.06 12.046346919783783 5.683687447744539 23.671071871474282 1 0 -1
3952 330 4 0.5 8.876726273580537 8.397030169626177 32.274298151226944 0 1 -1
4303 359 7 0.06 5.854195613261856 3.028276000951002 27.73834471875041 0 3 0
5994 500 6 0.06 3.999752059601631 5.669009370714743 30.367159061875068 1 2 1
4507 376 7 0.06 8.600825312581431 4.824917255478759 28.336630637981997 1 -1 -1
4511 376 11 0.06 9.18451525178707 3.44252800292847 31.688842481261805 1 -1 -1
153 13 9 0.06 3.3178843472539272 2.7279413568002004 30.848355954205786 1 -1 -2
4504 376 4 0.5 11.21047665765157 3.831704585381676 29.81525228289677 1 -1 -1
3119 260 11 0.06 11.118582467084988 10.65460856085773 29.551999897189955 0 0 -3
3117 260 9 0.06 10.660444465290286 10.74767530659547 31.196333999771774 0 0 -3
5993 500 5 -0.5 3.417526525489478 9.292454952156511 29.20800973784306 1 2 1
6000 500 12 0 3.1387496219502755 7.428491205779208 28.415162305394645 1 2 1
155 13 11 0.06 4.869560005563809 2.911180241733655 29.943420356526214 1 -1 -2
4505 376 5 -0.5 11.63141964305698 3.093748372036413 30.639592104047342 1 -1 -1
5989 500 1 -0.11 4.704320521921458 5.92287638038807 29.565466428909655 1 2 1
3593 300 5 -0.5 8.7178641947455 9.218603952842262 28.943064421153718 -2 1 -1
4509 376 9 0.06 7.990156203772659 3.963383750437055 30.575258810608307 1 -1 -1
4391 366 11 0.06 3.1061100818711207 11.42763876051791 31.560808457280515 0 2 0
3953 330 5 -0.5 9.715244036249281 7.530693544507309 32.07066964302022 0 1 -1
4501 376 1 -0.11 9.517821912212964 5.245659757932183 28.70075432074291 1 -1 -1
5997 500 9 0.06 6.7507470591827765 7.654247141292972 29.963382489348728 1 2 1
4508 376 8 0.06 10.242459023674796 5.221679975862541 27.86980925921268 1 -1 -1
4506 376 6 0.06 9.424932673731082 6.323959162246909 28.983480817927095 1 -1 -1
4502 376 2 -0.14 10.031924886361631 4.474818471529885 29.86145062272078 1 -1 -1
5995 500 7 0.06 5.734138250022994 5.6224412177908025 29.663628884500927 1 2 1
3592 300 4 0.5 8.319091841440176 10.355298862364931 28.704161097722494 -2 1 -1
4510 376 10 0.06 8.745513747178524 5.146786421295109 31.507345220852123 1 -1 -1
5991 500 3 -0.11 5.787861823017688 7.942989912000381 30.35962890463509 1 2 1
5992 500 4 0.5 3.640222768284542 8.080912837772129 29.126558021420074 1 2 1
5996 500 8 0.06 4.265066352528347 5.485641148277946 28.623836799579124 1 2 1
3798 317 6 0.06 2.1378233070936012 11.691710097625307 28.225608342714988 -1 -1 0
3960 330 12 0 8.075272189456932 8.56347968937136 31.51833562426715 0 1 -1
154 13 10 0.06 3.2910449102639157 2.462110328567579 29.082518962388132 1 -1 -2
4503 376 3 -0.11 8.97757413018693 4.2289898348775115 30.93495914173985 1 -1 -1
5990 500 2 -0.14 4.685792325758291 7.3512470222037996 29.595013434096753 1 2 1
5999 500 11 0.06 5.774779858687434 9.10139916995438 30.338090154079097 1 2 1
2232 186 12 0 2.9685602563592113 6.861387076633938 32.29370444376603 0 2 2
5998 500 10 0.06 5.738674522071167 7.7033507908433 31.39556851312308 1 2 1
3955 330 7 0.06 8.289097836612072 11.123076947593232 32.2692292155979 0 1 -1
147 13 3 -0.11 3.885900442935064 2.315482121246659 30.015562658898197 1 -1 -2
3111 260 3 -0.11 11.450708933157607 11.088161074421109 30.602555564377717 0 0 -3
4383 366 3 -0.11 2.6197034815786817 11.54601059108421 32.53993321564015 0 2 0
4512 376 12 0 11.956423143857833 4.07722633939793 28.984621544733603 1 -1 -1
3600 300 12 0 8.642159177633964 11.26487198945255 29.198165832319457 -2 1 -1
3590 300 2 -0.14 7.358078839206123 10.727159572077179 27.80695599027509 -2 1 -1
3799 317 7 0.06 3.9253259200435595 12.033835493160314 28.177748881948524 -1 -1 0
682 57 10 0.06 11.941008552827128 8.858946600939543 27.95596707144809 0 1 0
3957 330 9 0.06 10.672858326093724 8.741734478933381 34.02959452860722 0 1 -1
496 42 4 0.5 9.611257617997017 6.084568633397944 36.076319866432556 -1 -1 -2
3954 330 6 0.06 6.915054640920386 10.372810678821605 32.91620285193443 0 1 -1
4389 366 9 0.06 2.982515097877369 10.82859882188121 33.218040180347316 0 2 0
3616 302 4 0.5 5.914390513530225 7.05334357844705 35.225639554090534 0 -2 0
500 42 8 0.06 9.773163316325036 3.1368747152630068 34.882764590823065 -1 -1 -2
3951 330 3 -0.11 10.05673328468966 9.61039458666174 34.005869938260446 0 1 -1
3950 330 2 -0.14 8.919525339207015 9.397712021704502 33.081340544015234 0 1 -1
504 42 12 0 9.881723136504089 6.463463340366293 35.166143613285314 -1 -1 -2
495 42 3 -0.11 9.519915545456549 3.937898299793098 37.25243452843892 -1 -1 -2
494 42 2 -0.14 9.826257172372262 4.783911378273382 36.13701727604214 -1 -1 -2
2225 186 5 -0.5 3.156712484534435 4.980902108707497 33.08156709662397 0 2 2
503 42 11 0.06 10.216002482815608 3.145722834821294 37.403819671421275 -1 -1 -2
2222 186 2 -0.14 2.1414972649522177 6.68185911396779 34.16377581316685 0 2 2
3623 302 11 0.06 5.427129488985425 4.186672816575141 35.432850469910385 0 -2 0
2229 186 9 0.06 2.1975821618250926 6.377929992039822 36.33962877016902 0 2 2
3624 302 12 0 5.890090828436989 7.981117567189442 35.8368640763375 0 -2 0
3956 330 8 0.06 7.976500180479588 11.006312893540308 34.06228377081336 0 1 -1
3621 302 9 0.06 6.925016768922123 4.145607812126861 36.12779024962407 0 -2 0
1996 167 4 0.5 4.497940092896954 10.469589112108132 37.159355860742494 -1 0 -1
3959 330 11 0.06 10.622928311941992 10.491556673901377 33.566767442886366 0 1 -1
2224 186 4 0.5 2.767379062056255 6.151086658676319 33.11886728383183 0 2 2
2230 186 10 0.06 2.409915655891092 4.922432732944632 35.41909988473719 0 2 2
501 42 9 0.06 8.544371785394638 3.497533737247599 37.038928705228635 -1 -1 -2
1997 167 5 -0.5 4.02284211492526 9.564511717990076 36.45058392300624 -1 0 -1
3619 302 7 0.06 5.24932487568422 5.4792337141061065 37.85816132238712 0 -2 0
498 42 6 0.06 11.33870669613901 3.9611364528649027 35.027367170211654 -1 -1 -2
3617 302 5 -0.5 5.861264013480885 7.065978616402413 33.982122468686605 0 -2 0
3949 330 1 -0.11 7.978470427904949 10.499787439090221 33.136132727101895 0 1 -1
3613 302 1 -0.11 6.0634915017332 6.06603327263366 37.421371371262474 0 -2 0
2227 186 7 0.06 2.32289457516765 8.787897804561336 33.53897109748556 0 2 2
3614 302 2 -0.14 6.0406779566309865 5.964459402061268 36.00133735811093 0 -2 0
499 42 7 0.06 9.953725309702941 4.564489573162167 33.99772609908181 -1 -1 -2
3615 302 3 -0.11 6.304754876127813 4.64699554638225 35.407586455439535 0 -2 0
497 42 5 -0.5 9.235730968135364 6.793025360810611 37.00883523982477 -1 -1 -2
3860 322 8 0.06 4.035839374444599 2.396790379970876 36.10020315095656 0 1 -3
3622 302 10 0.06 6.789630804863876 4.515372663225927 34.412761501630996 0 -2 0
493 42 1 -0.11 10.231083909108362 4.0740805221789245 34.91457570002101 -1 -1 -2
2004 167 12 0 5.3266889227844425 11.068877400764597 36.76518982065563 -1 0 -1
3861 322 9 0.06 3.6637694714457663 2.0746711633798647 33.355021515150085 0 1 -3
3958 330 10 0.06 9.630935060641157 9.842189797996925 34.99457843087485 0 1 -1
3620 302 8 0.06 6.1911998235903685 7.140641921475801 37.63197074352174 0 -2 0
3618 302 6 0.06 6.890591835880219 5.562148409390964 37.82394769896708 0 -2 0
2001 167 9 0.06 3.510123953598896 9.498071965947858 40.0305745387234 -1 0 -1
4364 364 8 0.06 7.159266113996018 7.816898165147604 40.227496732827355 0 0 -1
2370 198 6 0.06 4.02758641460162 10.033961080994578 42.839632368809774 2 -1 0
4357 364 1 -0.11 8.144583299669092 8.18390138924845 40.30351385182354 0 0 -1
4365 364 9 0.06 7.372854342786493 9.796055856106866 37.98411795946349 0 0 -1
1994 167 2 -0.14 4.051540350512536 10.793361672043677 38.47267164103772 -1 0 -1
535 45 7 0.06 12.200545572613919 4.219850070961211 40.77038882371884 -2 1 -1
4358 364 2 -0.14 8.150010554014127 9.637815060871667 40.01303443129533 0 0 -1
3495 292 3 -0.11 8.620472809053332 3.6694480390080866 40.917423456409516 0 -3 1
840 70 12 0 3.14734631116025 3.524926719433829 42.606044544280124 1 1 -1
829 70 1 -0.11 3.248093503765917 4.624960833499981 40.446567813392015 1 1 -1
4361 364 5 -0.5 7.835311379169939 11.754195940016016 40.85340892812078 0 0 -1
1995 167 3 -0.11 3.03081680322187 9.971297942541629 39.150650101064066 -1 0 -1
529 45 1 -0.11 11.852772779652549 4.83343256876029 39.934897395496506 -2 1 -1
4366 364 10 0.06 9.100802472282389 9.529685709258672 38.02180675395192 0 0 -1
4360 364 4 0.5 7.916461373970794 10.521750381666 41.03392027383312 0 0 -1
832 70 4 0.5 2.3098060237998306 3.0759659185709287 42.033988511454346 1 1 -1
2002 167 10 0.06 2.440838285978389 9.234721579564752 38.50491973418918 -1 0 -1
3501 292 9 0.06 8.567002443573315 4.474910465076694 40.13065812256856 0 -3 1
4182 349 6 0.06 10.828687762352294 9.19821397958953 41.51472417450765 0 -1 -3
4184 349 8 0.06 11.471189953384034 10.60903483787656 42.32299514926995 0 -1 -3
3503 292 11 0.06 9.069426592750363 2.6851173740077563 40.650614509269516 0 -3 1
534 45 6 0.06 10.780209309492236 4.984472221041641 39.76301628059743 -2 1 -1
4363 364 7 0.06 8.748861299820248 7.771835989846844 39.51747826430588 0 0 -1
830 70 2 -0.14 2.1134738557805473 3.736507048934487 40.9343053728749 1 1 -1
3500 292 8 0.06 10.808918039381473 2.874925329424854 41.92102769447666 0 -3 1
2921 244 5 -0.5 5.166855434405599 2.191170527014378 42.60639632772693 2 -1 -1