LAMMPS data file via write_data, version 29 Aug 2024, timestep = 1000000, units = real

6174 atoms
18 atom types
6174 bonds
18 bond types
12348 angles
36 angle types
18522 dihedrals
54 dihedral types
4116 impropers
12 improper types

2.6032309165209817 42.396769083476535 xlo xhi
2.6032309165209817 42.396769083476535 ylo yhi
2.6032309165209817 42.396769083476535 zlo zhi

Masses

1 12.011
2 12.011
3 12.011
4 12.011
5 12.011
6 12.011
7 1.008
8 1.008
9 1.008
10 1.008
11 1.008
12 1.008
13 1.008
14 1.008
15 1.008
16 1.008
17 1.008
18 1.008

Pair Coeffs # lj/cut/coul/long

1 0.066 3.5
2 0.066 3.5
3 0.066 3.5
4 0.066 3.5
5 0.066 3.5
6 0.066 3.5
7 0.03 2.5
8 0.03 2.5
9 0.03 2.5
10 0.03 2.5
11 0.03 2.5
12 0.03 2.5
13 0.03 2.5
14 0.03 2.5
15 0.03 2.5
16 0.03 2.5
17 0.03 2.5
18 0.03 2.5

Bond Coeffs # harmonic

1 268 1.529
2 268 1.529
3 268 1.529
4 268 1.529
5 268 1.529
6 340 1.09
7 340 1.09
8 340 1.09
9 340 1.09
10 340 1.09
11 340 1.09
12 340 1.09
13 340 1.09
14 340 1.09
15 340 1.09
16 340 1.09
17 340 1.09
18 268 1.529

Angle Coeffs # harmonic

1 58.35 112.7
2 58.35 112.7
3 58.35 112.7
4 58.35 112.7
5 37.5 110.7
6 37.5 110.7
7 37.5 110.7
8 37.5 110.7
9 37.5 110.7
10 37.5 110.7
11 37.5 110.7
12 37.5 110.7
13 37.5 110.7
14 37.5 110.7
15 37.5 110.7
16 37.5 110.7
17 33 107.8
18 37.5 110.7
19 33 107.8
20 37.5 110.7
21 33 107.8
22 37.5 110.7
23 37.5 110.7
24 33 107.8
25 58.35 112.7
26 33 107.8
27 37.5 110.7
28 37.5 110.7
29 37.5 110.7
30 37.5 110.7
31 37.5 110.7
32 33 107.8
33 37.5 110.7
34 58.35 112.7
35 37.5 110.7
36 37.5 110.7

Dihedral Coeffs # opls

1 1.3 -0.05 0.2 0
2 1.3 -0.05 0.2 0
3 1.3 -0.05 0.2 0
4 0 0 0.3 0
5 0 0 0.3 0
6 0 0 0.3 0
7 0 0 0.3 0
8 1.3 -0.05 0.2 0
9 0 0 0.3 0
10 0 0 0.3 0
11 1.3 -0.05 0.2 0
12 0 0 0.3 0
13 0 0 0.3 0
14 0 0 0.3 0
15 0 0 0.3 0
16 0 0 0.3 0
17 0 0 0.3 0
18 0 0 0.3 0
19 0 0 0.3 0
20 0 0 0.3 0
21 0 0 0.3 0
22 0 0 0.3 0
23 0 0 0.3 0
24 0 0 0.3 0
25 0 0 0.3 0
26 0 0 0.3 0
27 0 0 0.3 0
28 0 0 0.3 0
29 0 0 0.3 0
30 0 0 0.3 0
31 0 0 0.3 0
32 0 0 0.3 0
33 0 0 0.3 0
34 0 0 0.3 0
35 0 0 0.3 0
36 0 0 0.3 0
37 0 0 0.3 0
38 0 0 0.3 0
39 0 0 0.3 0
40 0 0 0.3 0
41 0 0 0.3 0
42 0 0 0.3 0
43 1.3 -0.05 0.2 0
44 0 0 0.3 0
45 0 0 0.3 0
46 0 0 0.3 0
47 0 0 0.3 0
48 0 0 0.3 0
49 0 0 0.3 0
50 0 0 0.3 0
51 0 0 0.3 0
52 0 0 0.3 0
53 0 0 0.3 0
54 0 0 0.3 0

Improper Coeffs # cvff

1 0 -1 2
2 0 -1 2
3 0 -1 2
4 0 -1 2
5 0 -1 2
6 0 -1 2
7 0 -1 2
8 0 -1 2
9 0 -1 2
10 0 -1 2
11 0 -1 2
12 0 -1 2

Atoms # full

1409 79 5 -0.12 6.189336758206499 4.924163173004183 5.762241913088565 3 3 -2
2562 143 6 -0.12 3.0631021820716544 8.242920699722022 11.764803551356112 0 0 2
1411 79 7 0.06 3.587335757834202 3.621052969688516 7.69614405348659 3 3 -2
3550 198 4 -0.12 3.916761730137598 11.580802702459552 5.157083885446202 -1 -1 0
1419 79 15 0.06 5.811006545599598 5.935261200845172 5.632005395279231 3 3 -2
1415 79 11 0.06 3.9205125173380067 4.419299476331073 3.973837136953868 3 3 -2
1416 79 12 0.06 4.541712357766828 2.8750885725986364 3.50367835522042 3 3 -2
3756 209 12 0.06 4.472327528938103 2.697961812215719 10.416534879362453 3 2 -1
2558 143 2 -0.12 5.492243193075703 8.325365582909756 11.522250495178557 0 0 2
2567 143 11 0.06 5.8426705729768305 10.41960199856876 11.340386083568188 0 0 2
2564 143 8 0.06 4.077408729066743 8.473114560232531 9.863347229307031 0 0 2
3223 180 1 -0.12 3.862352082520355 12.355559728991846 8.92757866882789 1 2 2
3558 198 12 0.06 5.9311545967733315 12.285116648457027 4.769336184215784 -1 -1 0
709 40 7 0.06 6.869764698393845 2.9967091297355495 10.723405832707554 0 1 -1
1421 79 17 0.06 5.599154965994468 4.889871062654651 7.901458190551647 3 3 -2
2559 143 3 -0.12 5.6678013146925 9.723760548639802 12.174839398264064 0 0 2
2557 143 1 -0.12 4.180703655841281 7.917634581574107 10.795672054870707 0 0 2
314 18 8 0.06 7.115736866729973 8.636405873898276 5.996726783709388 3 -2 0
1412 79 8 0.06 3.4391220805345117 4.914911751468402 6.601652841541242 3 3 -2
1420 79 16 0.06 7.224936177330293 4.936120315831483 6.135038289183873 3 3 -2
2563 143 7 0.06 4.2611479618398835 6.840203548629415 10.644367512905776 0 0 2
1422 79 18 0.06 6.0084042429077105 3.3884342215072145 7.308034438520657 3 3 -2
2561 143 5 -0.12 3.116411565314344 9.777632151919939 12.176078134639893 0 0 2
3595 200 13 0.06 4.863159145093103 6.247715516346947 2.6779312488262477 0 -2 0
1408 79 4 -0.12 5.949559084070495 4.085763295764467 4.5212736209901205 3 3 -2
1418 79 14 0.06 6.547884001304258 3.2318817626102483 4.7486479156847174 3 3 -2
1406 79 2 -0.12 3.875957458863025 2.9693601006597135 5.548464778825919 3 3 -2
1417 79 13 0.06 6.372615134338769 4.611611191957611 3.626238136540392 3 3 -2
1405 79 1 -0.12 3.9956450664462935 4.003667437348809 6.712524399568811 3 3 -2
2566 143 10 0.06 5.643652455987627 7.693558944824635 12.40150609978203 0 0 2
3559 198 13 0.06 4.168114893294037 11.122935783724053 6.059937635092885 -1 -1 0
3556 198 10 0.06 4.9217537649503456 12.344723142567354 2.6695842151328275 -1 -1 0
3758 209 14 0.06 3.1052807903869897 4.507771677530069 11.567026508595498 3 2 -1
1407 79 3 -0.12 4.515468601307218 3.614650135740983 4.32390028479676 3 3 -2
2565 143 9 0.06 6.352037653113587 8.132712207311886 10.858911956674477 0 0 2
711 40 9 0.06 6.812772373850356 5.249368014052896 11.86851293606525 0 1 -1
3560 198 14 0.06 3.930306689178225 10.755463363952039 4.510612217918581 -1 -1 0
1410 79 6 -0.12 5.4813728520309635 4.316542565225503 7.020933577963159 3 3 -2
3230 180 8 0.06 3.5765662045775244 12.320139111928777 7.865114906347808 1 2 2
3229 180 7 0.06 4.2114982666302545 11.349289137645679 9.224515348951488 1 2 2
2571 143 15 0.06 2.897435026641949 10.371701035445199 11.290894576082254 0 0 2
3594 200 12 0.06 4.711062896863572 8.743129617456002 3.7581237835383154 0 -2 0
313 18 7 0.06 7.365635300974278 10.369486138539795 5.688580760970208 3 -2 0
323 18 17 0.06 7.231154181347288 8.971082914150331 3.6229544697320586 3 -2 0
4724 263 8 0.06 2.8130222168104773 7.017989459573525 5.9830546416227754 1 0 -1
712 40 10 0.06 7.123890298126478 5.546911678487709 10.143134756816284 0 1 -1
3593 200 11 0.06 3.4086223564162603 8.465229001363934 2.706186488591266 0 -2 0
3585 200 3 -0.12 4.533286827101226 8.551247808226382 2.709300484717434 0 -2 0
3757 209 13 0.06 2.9468340099184993 4.3278061863368436 9.849918252067454 3 2 -1
3748 209 4 -0.12 2.7131775940606064 3.8039296434200507 10.778984791250354 3 2 -1
704 40 2 -0.12 7.559851249089306 5.042940049789153 11.063574718060416 0 1 -1
1413 79 9 0.06 2.8509768362101005 2.837995444970968 5.29153892453637 3 3 -2
5890 328 4 -0.12 4.972781899101074 8.172594836307095 22.18406409319938 2 1 -1
1351 76 1 -0.12 2.9823445876887034 11.542703312694906 17.655346535795083 -2 0 0
4931 274 17 0.06 7.064747439974398 12.381281085379177 18.552795493975434 0 -2 0
5896 328 10 0.06 5.019378736858833 10.773536724923769 21.164762114702306 2 1 -1
2725 152 7 0.06 5.908465747387931 4.945100243172115 17.461756283961023 1 2 0
1698 95 6 -0.12 4.664558891327275 3.233352774970556 22.092278074290352 0 1 -1
2721 152 3 -0.12 2.7863279070413465 3.57732824629476 17.462700250475677 1 2 0
1358 76 8 0.06 3.968845752816916 10.99782516827578 17.830850685702302 -2 0 0
2569 143 13 0.06 4.400285653712178 11.20730551711 13.168342873368777 0 0 2
2724 152 6 -0.12 4.372134507593282 5.62478442787083 16.14147351846288 1 2 0
5899 328 13 0.06 4.821328481300543 7.055268520614668 22.181568031383954 2 1 -1
6153 342 15 0.06 7.30111697371052 9.091546747726973 17.77582757738527 1 1 2
2574 143 18 0.06 3.162408832530042 7.651105684972276 12.674196029515983 0 0 2
2720 152 2 -0.12 4.324127152794416 3.728762738736879 17.653101745706735 1 2 0
2732 152 14 0.06 2.6286316195999584 3.565079365843487 15.351752323393704 1 2 0
5895 328 9 0.06 5.721956240105812 10.403570925394323 19.590012353231163 2 1 -1
1359 76 9 0.06 2.7922609913273244 11.131188807909048 15.403505993888887 -2 0 0
1693 95 1 -0.12 6.046017203119472 3.591493872613129 21.600379959875692 0 1 -1
5897 328 11 0.06 5.9296064218485185 7.857463038238364 20.408743922042124 2 1 -1
6146 342 8 0.06 7.0412535582623255 7.194047206026546 15.575605854469183 1 1 2
2736 152 18 0.06 4.778261453464262 5.171881607899074 15.24646760463819 1 2 0
2719 152 1 -0.12 4.908661964956266 5.071164384924519 17.446663295975306 1 2 0
2560 143 4 -0.12 4.381518021431969 10.146539145685695 12.957927610560724 0 0 2
2727 152 9 0.06 4.552578394531143 3.357823419979132 18.649445810142215 1 2 0
2726 152 8 0.06 4.661953593282249 5.701725769574927 18.29120119427744 1 2 0
1700 95 8 0.06 6.064470999617859 4.64735616549846 21.29562766466985 0 1 -1
5887 328 1 -0.12 7.069886075421516 10.256024188637126 21.36844955619868 2 1 -1
2570 143 14 0.06 4.39899330179121 9.748718703575731 13.973244563387855 0 0 2
1367 76 17 0.06 2.7039125136494886 11.427233085285168 19.773434715617313 -2 0 0
5898 328 12 0.06 4.294335737611198 8.505663566542651 20.158886558253915 2 1 -1
2723 152 5 -0.12 2.8454514152693364 5.63098678496376 16.017658899197798 1 2 0
2735 152 17 0.06 4.630714691252367 6.699157487200506 15.984951505486254 1 2 0
3454 192 16 0.06 5.869376177512429 2.79017596828112 15.066143126016991 2 1 -1
5888 328 2 -0.12 5.661598234016604 10.062970491116584 20.68056035830594 2 1 -1
5889 328 3 -0.12 5.20646958083142 8.611222252341774 20.746459408836653 2 1 -1
2728 152 10 0.06 4.903918523200987 3.0496770144767353 16.96128531832431 1 2 0
1709 95 17 0.06 3.9108929730409887 3.2725322771497822 21.282453529490194 0 1 -1
2568 143 12 0.06 6.546021496957566 9.723294568846223 12.852727042877325 0 0 2
6149 342 11 0.06 7.074615133942924 9.953997364818319 15.211222778872429 1 1 2
5893 328 7 0.06 7.32085462414849 11.32354878436521 21.261923305181526 2 1 -1
3453 192 15 0.06 7.368125307424606 2.988294197864186 14.281044600260593 2 1 -1
1699 95 7 0.06 6.417563358117183 2.9786457176504895 20.81837916519246 0 1 -1
4833 269 9 0.06 6.67023047205307 10.826225951280831 31.020361103150208 2 0 0
1705 95 13 0.06 5.173384061511145 4.893611679219081 25.20138421776522 0 1 -1
4469 249 5 -0.12 3.664039508161464 7.122745663669079 26.5965117452518 1 0 1
5939 330 17 0.06 4.172053867744443 8.89633028475849 31.335914221007563 1 0 0
1706 95 14 0.06 5.435370388216109 3.193463022260995 25.02019288944053 0 1 -1
3214 179 10 0.06 3.997390004753668 11.66230355892221 28.204850312389862 0 -2 -2
4477 249 13 0.06 4.749696299227393 7.184292431211806 28.411772174665327 1 0 1
5938 330 16 0.06 6.26511945027077 7.3667058179424325 30.820759648445215 1 0 0
4834 269 10 0.06 7.558216188281515 12.191885653845059 31.893492146585338 2 0 0
4478 249 14 0.06 3.7183676528407124 8.606871848794766 28.193099132438714 1 0 1
5902 328 16 0.06 6.116417415695656 8.190920374827407 24.17181749030545 2 1 -1
2694 150 12 0.06 6.891462205356071 6.940451587240738 25.977160455127645 2 -2 0
4832 269 8 0.06 6.918220287536319 11.750589704624115 28.907142609094528 2 0 0
5927 330 5 -0.12 5.496490266006058 7.125736219762541 31.622530268555277 1 0 0
2411 134 17 0.06 4.440380385024586 11.471379619122144 31.6257914795632 0 0 -1
4479 249 15 0.06 3.8526035829940164 6.04840262950611 26.539070924937032 1 0 1
5928 330 6 -0.12 4.762124266620531 8.409113887479988 32.10330470027178 1 0 0
3205 179 1 -0.12 4.230014703537739 12.38678243990242 26.233267501406733 0 -2 -2
4826 269 2 -0.12 7.476556647196419 11.585767266231898 30.970340070688717 2 0 0
3222 179 18 0.06 3.884635507432155 10.277918856932647 25.789986746215764 0 -2 -2
1039 58 13 0.06 4.05238831432164 3.2227179880038346 32.184608307380685 0 1 -1
4825 269 1 -0.12 7.039033176586792 12.461693563744515 29.725888778821197 2 0 0
1032 58 6 -0.12 6.342546351969428 2.7018333187937364 29.714342276234667 0 1 -1
1703 95 11 0.06 6.546084152431567 5.398863087525689 23.428248847328874 0 1 -1
5937 330 15 0.06 4.819687441985306 6.345965909565006 31.19195152154288 1 0 0
1041 58 15 0.06 6.144915416986567 4.3240437750170955 31.14371364139979 0 1 -1
5892 328 6 -0.12 6.853067084905542 9.882352110676885 22.84567487366888 2 1 -1
3221 179 17 0.06 3.9484694891422225 11.382021157466983 24.481124706894104 0 -2 -2
1695 95 3 -0.12 6.712708971941733 4.435077368045937 23.85033860484284 0 1 -1
3210 179 6 -0.12 3.5786570228442867 11.266294877904299 25.46801637625674 0 -2 -2
1697 95 5 -0.12 4.283884750185885 4.105470428126286 23.294836157953654 0 1 -1
2696 150 14 0.06 7.242168871529323 6.734930107789637 28.391177119191152 2 -2 0
5940 330 18 0.06 5.495498957987391 9.153794508295082 32.32841676523407 1 0 0
1043 58 17 0.06 6.855690297192179 3.2549361035109428 28.880499152437388 0 1 -1
1042 58 16 0.06 4.641922639014856 4.046680956622454 30.10854308659339 0 1 -1
1694 95 2 -0.12 7.065638165256732 3.5021482495479077 22.73163058163272 0 1 -1
4468 249 4 -0.12 3.7670480480663544 7.517601165619528 28.098419120156148 1 0 1
2412 134 18 0.06 3.760422143875462 12.399083236289897 30.477202538105537 0 0 -1
1696 95 4 -0.12 5.352132295787127 4.172831236870657 24.48590236433395 0 1 -1
4088 228 2 -0.12 3.2788029010967445 2.7399178418463386 27.455313011999525 0 2 1
1031 58 5 -0.12 5.4846743238573055 3.574537316815289 30.644135708965738 0 1 -1
3211 179 7 0.06 5.304204333471871 12.282704634718971 26.31201832568591 0 -2 -2
4095 228 9 0.06 3.6880243630133216 3.4115055741541083 28.038240370576958 0 2 1
5904 328 18 0.06 6.212514404806081 10.660370605411101 23.464245261304576 2 1 -1
1708 95 16 0.06 3.332535564864963 3.8076572084422815 23.70196352760341 0 1 -1
4480 249 16 0.06 4.425277181991678 7.553734764537553 25.93619093725306 1 0 1
2400 134 6 -0.12 3.7834763550926045 12.288657301214796 31.555141946032407 0 0 -1
4475 249 11 0.06 2.6284439512523976 5.889549662849711 28.782513689695506 1 0 1
5891 328 5 -0.12 6.269069593678312 8.424897725296514 23.077392202080297 2 1 -1
1707 95 15 0.06 4.14341516025752 5.088688276650251 22.798639527496423 0 1 -1
5901 328 15 0.06 6.8706716172335245 7.6702915232177045 22.72746839356193 2 1 -1
5900 328 14 0.06 4.0742926197028915 8.735046883091849 22.639438096770373 2 1 -1
4467 249 3 -0.12 2.611388965937651 6.982334236034715 28.8156836090947 1 0 1
1704 95 12 0.06 7.49329459001069 4.523004822447992 24.590241396507555 0 1 -1
4093 228 7 0.06 2.620246386633781 4.416045921398671 26.058204281475387 0 2 1
3590 200 8 0.06 3.3625817701816088 8.962120843406769 39.75679239772717 0 -2 -1
3596 200 14 0.06 6.296185840532737 7.2454110452369305 42.136928145265756 0 -2 -1
3592 200 10 0.06 5.536099480663344 10.124117587027305 41.55854027671913 0 -2 -1
3598 200 16 0.06 5.38127863966433 5.941753816274161 40.0832353402817 0 -2 -1
5932 330 10 0.06 5.612539648208013 8.344728877599195 34.69250485771731 1 0 0
3588 200 6 -0.12 5.274071033301885 8.193702683496946 39.69341288511987 0 -2 -1
4716 262 18 0.06 4.799509747991006 3.04240717573557 37.64920225262617 0 0 0
4534 252 16 0.06 6.743930180092063 2.9875925620765287 36.03636128577344 1 1 0
5923 330 1 -0.12 3.8797514570123353 8.369868263437978 33.36573444245134 1 0 0
542 31 2 -0.12 6.582146757531113 12.095156641648082 37.43414455584515 -1 0 1
3587 200 5 -0.12 4.923096544549074 6.911971257329847 40.478566849737106 0 -2 -1
3597 200 15 0.06 3.884784989754208 6.726751733358708 40.33990549482024 0 -2 -1
5934 330 12 0.06 5.83853306572695 5.974867562890969 34.88315540368407 1 0 0
3586 200 4 -0.12 5.205332878034727 7.154186679232601 41.9673752672484 0 -2 -1
554 31 14 0.06 5.623323033601497 11.536838316359075 34.9007447366549 -1 0 1
4059 226 9 0.06 3.3107800823947247 10.755060614391597 35.445992257791104 2 -1 1
5933 330 11 0.06 4.464509528794001 5.694233819538063 33.868367409282136 1 0 0
4060 226 10 0.06 2.8988261982848638 11.184607478708248 37.089934887347354 2 -1 1
558 31 18 0.06 6.643272780952401 9.64347881817934 36.13638390339261 -1 0 1
3583 200 1 -0.12 4.330797526088896 9.297562722940475 40.06284459746284 0 -2 -1
544 31 4 -0.12 6.569075670355324 12.066296382852416 34.882814270909634 -1 0 1
3599 200 17 0.06 5.099684145840643 8.140268311491564 38.6171820276208 0 -2 -1
5929 330 7 0.06 3.37766917106211 9.324675847938979 33.62236834150907 1 0 0
3589 200 7 0.06 4.557031525857524 10.099924943615047 39.414321365811205 0 -2 -1
4712 262 14 0.06 3.451065972681732 5.410740622344828 37.21359206343733 0 0 0
3591 200 9 0.06 3.850697746277498 10.562811014364394 41.75984318915924 0 -2 -1
4702 262 4 -0.12 2.711553931331784 4.95208309931688 37.96710932857923 0 0 0
5931 330 9 0.06 4.11964130992211 7.508271685404251 35.346382999609844 1 0 0
550 31 10 0.06 5.573794981172895 11.612828465844226 37.55217022349966 -1 0 1
4057 226 7 0.06 3.4058543789355573 8.87259499656985 36.93311710045481 2 -1 1
5925 330 3 -0.12 5.288126344346092 6.390022030743264 34.08984117774426 1 0 0
5924 330 2 -0.12 4.726031143977863 7.773625385746074 34.47301412588722 1 0 0
4714 262 16 0.06 4.06982871479505 4.504594793372084 39.533684024683396 0 0 0
5926 330 4 -0.12 6.23588611785658 6.561589859543469 32.872226541033996 1 0 0
4703 262 5 -0.12 3.3227027290861537 3.9402229457666795 38.947941322623805 0 0 0
3600 200 18 0.06 6.373709584238535 8.450065736200902 39.89097702931046 0 -2 -1
3584 200 2 -0.12 4.57991900580098 9.775051214076937 41.517131346274454 0 -2 -1
5936 330 14 0.06 6.97986904516824 7.2663273216962265 33.2115692509828 1 0 0
4708 262 10 0.06 3.094614506030629 3.728068427135936 35.67040420886697 0 0 0
5935 330 13 0.06 6.859492966856132 5.696638742748965 32.6740678112085 1 0 0
5930 330 8 0.06 2.8733205560889865 7.810347279650809 33.28411761727437 1 0 0
4704 262 6 -0.12 3.919359175119343 2.745977136093649 38.17288247620826 0 0 0
547 31 7 0.06 7.528102334869875 10.401117881085991 38.259909596218876 -1 0 1
4854 270 12 0.06 6.20305930515471 19.891685232891504 12.317507735436436 1 0 0
3548 198 2 -0.12 4.724409530659319 13.136202033467342 3.366761817316786 -1 -1 0
4860 270 18 0.06 5.394730601978435 19.197693301741857 8.283744193461692 1 0 0
3549 198 3 -0.12 4.92872423758304 12.661323988302254 4.818272306831899 -1 -1 0
4234 236 4 -0.12 3.9772608948646413 21.18054452413867 6.503835562094931 1 1 0
450 25 18 0.06 5.914165179566476 15.779805270103555 4.284759218534303 -1 1 0
4851 270 9 0.06 3.797167656223282 19.52630100191888 11.747367462837243 1 0 0
449 25 17 0.06 5.6598839702672565 17.403953403985845 4.764102677676307 -1 1 0
4243 236 13 0.06 4.771111303431621 20.43923798853926 6.545322117705856 1 1 0
4850 270 8 0.06 4.001440243932702 17.44922036648031 10.342992729485069 1 0 0
4858 270 16 0.06 7.434213630931477 17.749914738089736 8.804639793909303 1 0 0
4844 270 2 -0.12 4.627788469007754 19.451304615920872 11.025995120191332 1 0 0
438 25 6 -0.12 6.444771150333876 16.67523394244462 4.550707468858555 -1 1 0
4235 236 5 -0.12 2.705684120249154 20.8395527856413 7.331533457173109 1 1 0
4847 270 5 -0.12 6.648869554219145 17.91238623330851 9.561832922305989 1 0 0
3240 180 18 0.06 3.0337517794408235 12.75277269314264 10.801895193841439 1 2 2
58 4 4 -0.12 3.3621026298141405 22.323896426266547 2.786407621375824 -1 -1 2
4859 270 17 0.06 4.885083231796536 17.59179793616186 8.073516614906701 1 0 0
3236 180 14 0.06 3.678730772309566 15.379032143360696 10.381489281388774 1 2 2
4846 270 4 -0.12 7.0614026247625645 19.060658296354205 10.561986555684761 1 0 0
3233 180 11 0.06 4.154902171262419 14.664442182563619 7.486825371274447 1 2 2
3226 180 4 -0.12 3.304877070523123 15.213664913697846 9.33695979058829 1 2 2
59 4 5 -0.12 4.878463519115609 22.113252244668843 2.8275251771296404 -1 -1 2
4245 236 15 0.06 2.916533722762538 20.440021215186086 8.26313292359512 1 1 0
4241 236 11 0.06 4.709648163751354 22.10027828380517 8.248164251348946 1 1 0
4848 270 6 -0.12 5.311280416443061 18.23471534659076 8.84572299816569 1 0 0
433 25 1 -0.12 7.265992373617596 17.100933686654646 3.3121746658334463 -1 1 0
3224 180 2 -0.12 4.9981190272615725 13.316535428844658 9.077626758853688 1 2 2
3225 180 3 -0.12 4.509286633164264 14.715072985927634 8.48431850551406 1 2 2
3234 180 12 0.06 5.423767642472873 15.293922988986857 8.480590330848424 1 2 2
4852 270 10 0.06 4.794688325207162 20.400163209662757 10.536385179180385 1 0 0
69 4 15 0.06 5.051735320766372 21.81110987583045 3.830321663125284 -1 -1 2
4845 270 3 -0.12 5.92052989328778 19.1105972851069 11.639521140178127 1 0 0
3557 198 11 0.06 4.817277295010534 13.518616577435775 5.532999046045502 -1 -1 0
4843 270 1 -0.12 4.229873014478567 18.438225009077406 9.93522329719103 1 0 0
4849 270 7 0.06 3.2223669332643268 18.785730708598 9.622229118179458 1 0 0
4853 270 11 0.06 5.86625757541885 18.152283942501697 12.145589920457434 1 0 0
3231 180 9 0.06 5.814002321599407 12.917674551433404 8.588117734251346 1 2 2
1539 86 9 0.06 7.0608371234968175 22.176165590835815 5.153768312012877 0 1 0
437 25 5 -0.12 7.315307249108958 16.440177742430002 5.754346123115667 -1 1 0
3555 198 9 0.06 5.4665973295085415 13.953205696965641 3.0804190072774693 -1 -1 0
3235 180 13 0.06 2.965094648235164 16.10248330832474 8.941742105709052 1 2 2
447 25 15 0.06 6.72490338810625 16.229766134472563 6.633090776047586 -1 1 0
4857 270 15 0.06 6.572768979429459 17.027679294742647 10.094934621133133 1 0 0
3232 180 10 0.06 5.2846231401631005 13.43122956972569 10.11449295045482 1 2 2
4856 270 14 0.06 7.2462712474910616 20.021429956518443 9.984339954338715 1 0 0
4244 236 14 0.06 3.7274089333621063 21.327944585365465 5.447755628122145 1 1 0
3228 180 6 -0.12 2.7092675693809336 12.824719631535714 9.767875967618469 1 2 2
3554 198 8 0.06 3.29430430234619 14.599917734053768 3.386924828652981 -1 -1 0
3547 198 1 -0.12 3.3150227739975557 13.61195072373103 3.0065252270826095 -1 -1 0
124 7 16 0.06 5.671608832747355 22.483358872377348 10.8538598649364 -2 1 2
4233 236 3 -0.12 4.508573748905611 22.41868757563948 7.208554389370885 1 1 0
57 4 3 -0.12 2.679951098794045 20.997729494773182 2.764843962084056 -1 -1 2
854 48 8 0.06 2.658083970221129 17.926728232256046 4.641288560717376 1 0 3
4225 235 13 0.06 5.353838525283734 14.654570253660076 12.543140973460735 0 0 1
855 48 9 0.06 2.6386908460619933 15.877094097061889 5.766011445607258 1 0 3
65 4 11 0.06 2.8312939429731117 20.527394218711244 3.766119438398184 -1 -1 2
4214 235 2 -0.12 4.650692341761205 13.613163047084253 15.247623845845444 0 0 1
2785 155 13 0.06 4.533703697762405 20.25502289789148 19.157884556507362 -2 -2 0
2786 155 14 0.06 4.977167111407087 18.78454840840199 18.3335785235859 -2 -2 0
2782 155 10 0.06 4.034051798779542 19.009831160849686 15.47628307123181 -2 -2 0
4222 235 10 0.06 5.031649107545537 13.090579795127917 16.09320238916444 0 0 1
227 13 11 0.06 7.063898647808624 21.044304196205353 21.583540514522543 0 -1 2
4916 274 2 -0.12 6.459555254827896 15.820261582381882 19.25776056894054 0 -2 0
4932 274 18 0.06 6.935982552715872 13.602613744737432 17.29987926710324 0 -2 0
2776 155 4 -0.12 4.196636708369702 19.634324231813963 18.396482531310895 -2 -2 0
2781 155 9 0.06 3.291508894598748 20.5261505031002 15.189855569070556 -2 -2 0
4921 274 7 0.06 5.344378954611876 13.96990974484836 19.031721398788054 0 -2 0
4920 274 6 -0.12 7.130662318737613 13.487594897553661 18.370026259998454 0 -2 0
1842 103 6 -0.12 3.0578366915783306 15.190578324949854 21.67892192697292 1 3 0
1854 103 18 0.06 3.807428053552536 14.513144889947862 21.98482958604811 1 3 0
2783 155 11 0.06 3.576384314045159 21.372292360938058 17.41225200391436 -2 -2 0
4219 235 7 0.06 4.069235372014702 15.482739078149923 16.382078457487882 0 0 1
4227 235 15 0.06 4.103590069529178 16.514815626288478 12.718908413975702 0 0 1
4218 235 6 -0.12 3.2486938929598437 15.475082278279322 14.427012353431598 0 0 1
4223 235 11 0.06 6.7035056525053704 13.649908299511054 14.360099796886384 0 0 1
2790 155 18 0.06 3.016095476383454 17.48279610930325 17.312786840827115 -2 -2 0
4923 274 9 0.06 5.941416020630474 16.33304160275283 20.097782510520243 0 -2 0
223 13 7 0.06 5.441294014037824 17.406108704071357 22.28513849785348 0 -1 2
4454 248 8 0.06 6.399680711460955 22.235947741490094 19.77869675005642 0 0 0
4216 235 4 -0.12 5.519038936179283 15.273748684300852 13.412593982374299 0 0 1
4220 235 8 0.06 2.750798662139621 14.229364361422306 16.09800966188511 0 0 1
4221 235 9 0.06 4.159179749923659 12.913758846108847 14.622529713527912 0 0 1
2788 155 16 0.06 3.189802855709922 18.25397965973174 19.601866261682588 -2 -2 0
4228 235 16 0.06 4.786304682959301 16.97515966604049 14.272346646997788 0 0 1
4215 235 3 -0.12 5.926858796145618 14.3470435739056 14.653616311480148 0 0 1
4915 274 1 -0.12 6.265284989821302 14.270008854888216 19.297030588885104 0 -2 0
4213 235 1 -0.12 3.6413064180321313 14.708462719750484 15.723300458519493 0 0 1
4924 274 10 0.06 6.102054418941283 16.169568729828285 18.23544593180202 0 -2 0
2777 155 5 -0.12 2.842299442714816 18.996368554266304 18.82551394577477 -2 -2 0
4226 235 14 0.06 6.517267797400315 15.827262596264058 13.160615908617455 0 0 1
231 13 15 0.06 4.308720250989063 20.968763436562078 21.61379333166009 0 -1 2
2775 155 3 -0.12 4.075048057312642 20.49364069632644 17.123974490225805 -2 -2 0
218 13 2 -0.12 6.895382171819154 19.014035294390972 22.456507747240543 0 -1 2
2784 155 12 0.06 5.013616637910788 20.871341682861008 16.65961063217776 -2 -2 0
233 13 17 0.06 3.431420258413297 18.75247315492032 22.00347240341169 0 -1 2
4229 235 17 0.06 2.726274415099623 14.805059602296494 13.711160259095145 0 0 1
4922 274 8 0.06 6.427916433376711 13.861643817657583 20.360429795602357 0 -2 0
2774 155 2 -0.12 3.41130065312923 19.790061919134356 15.96129786094901 -2 -2 0
1853 103 17 0.06 3.631053504166994 15.717806927079081 20.934891514162455 1 3 0
217 13 1 -0.12 5.568519216627304 18.424436969216735 21.946217996521902 0 -1 2
4217 235 5 -0.12 4.403609485212887 16.14590776719339 13.690545387538215 0 0 1
224 13 8 0.06 5.566209395466967 18.403058524078453 20.850476399416426 0 -1 2
4224 235 12 0.06 6.497630818763353 14.917946922537917 15.368627158411817 0 0 1
4455 248 9 0.06 6.460184878682082 22.13481874306173 17.389552905239363 0 0 0
1357 76 7 0.06 3.20667653307978 12.582880187314695 17.599274375708045 -2 0 0
2642 147 14 0.06 7.526109385026064 20.530584428224675 16.173806971174116 -1 1 2
5340 297 12 0.06 6.38665994128898 13.435066135598253 24.339175323041484 2 1 2
2410 134 16 0.06 5.294058239577655 13.921756561483551 31.928379532028995 0 0 -1
344 20 2 -0.12 6.220972723346989 16.38280503759854 26.622695166441 -2 -2 0
351 20 9 0.06 7.21943857469141 16.592641468443777 26.393450494623945 -2 -2 0
3879 216 9 0.06 3.3233860989922865 20.689873520374984 26.780014439414515 0 0 0
5331 297 3 -0.12 7.431955339692622 13.236001522527888 24.140528471166817 2 1 2
232 13 16 0.06 3.409261304542145 20.979555741060658 23.13105987294463 0 -1 2
357 20 15 0.06 3.4333750178062115 18.199603536472424 27.835744034764446 -2 -2 0
2398 134 4 -0.12 3.2602706042891714 14.756782116687123 32.023178145062055 0 0 -1
4831 269 7 0.06 5.9785050445418335 12.8826593543934 29.883336382718678 2 0 0
360 20 18 0.06 3.488357209889379 15.913509603647602 26.01418691610434 -2 -2 0
346 20 4 -0.12 4.664850705223534 16.528917674262527 28.6062690251908 -2 -2 0
350 20 8 0.06 5.52919799288923 18.178166271810866 25.966610212794052 -2 -2 0
349 20 7 0.06 5.397817136198803 16.886602039263302 24.75037373837796 -2 -2 0
3213 179 9 0.06 4.285459344919447 13.366643452280487 28.217326905249276 0 -2 -2
3212 179 8 0.06 4.075497953705505 13.370538699268833 25.654369426853012 0 -2 -2
6158 343 2 -0.12 3.6686801689618997 20.51641239284716 32.030710133437196 2 2 0
6168 343 12 0.06 3.7993179801698385 19.308705912566285 30.187748494885167 2 2 0
355 20 13 0.06 4.471583178721843 16.85859911168606 29.685394663584542 -2 -2 0
348 20 6 -0.12 3.8031110382294404 16.921896221549062 26.21435938270349 -2 -2 0
6166 343 10 0.06 3.031098217710988 21.353176833046394 31.685355306697524 2 2 0
353 20 11 0.06 6.347093919150687 17.76967117417145 28.34180678850954 -2 -2 0
1510 84 16 0.06 5.589541880304166 16.729652847260787 31.976801869196198 1 0 0
1511 84 17 0.06 7.298993788237621 18.56667404336516 31.603815145803345 1 0 0
343 20 1 -0.12 5.2437077511675065 17.14878795347736 25.810572626351696 -2 -2 0
359 20 17 0.06 3.2138125761900262 17.62221071891213 25.599722384082646 -2 -2 0
3462 193 6 -0.12 6.3208275078785245 20.884506811671482 27.281233919475003 0 0 1
352 20 10 0.06 5.9922722658798016 15.289791224558323 26.441393567552186 -2 -2 0
230 13 14 0.06 5.690792585542908 20.62148828132957 24.303128100384484 0 -1 2
3206 179 2 -0.12 3.7077090779333357 12.563265557221605 27.683485033782773 0 -2 -2
220 13 4 -0.12 5.624134101505128 21.02650724840553 23.285533329282952 0 -1 2
356 20 14 0.06 4.519376402986591 15.47165202399834 28.656094926071717 -2 -2 0
3461 193 5 -0.12 5.988181964379219 22.454466650608747 27.16882705717254 0 0 1
354 20 12 0.06 6.668934475002861 16.043524458943725 28.82216618427559 -2 -2 0
345 20 3 -0.12 6.109884182595685 16.72687621803993 28.13215644830069 -2 -2 0
3881 216 11 0.06 3.0555991122135002 21.34954748684495 29.011269539610122 0 0 0
3474 193 18 0.06 5.601149283724555 20.412596999401966 27.981071325524454 0 0 1
221 13 5 -0.12 4.3157238096832895 20.533042533593623 22.627846728232086 0 -1 2
347 20 5 -0.12 3.5461523493085045 17.11892662026068 27.733262379237534 -2 -2 0
234 13 18 0.06 4.1480132937861764 18.681650220795024 23.577650579788614 0 -1 2
1843 103 7 0.06 3.478182859702608 16.371254091200957 23.566842560687554 1 3 0
6159 343 3 -0.12 3.4839514299831835 19.233390758283978 31.22167645004399 2 2 0
6167 343 11 0.06 4.246038553719657 18.60512307762841 31.690450933884286 2 2 0
226 13 10 0.06 7.2626979220099885 18.5617305634495 23.36887244063445 0 -1 2
6165 343 9 0.06 4.756089521810293 20.82509189555337 31.925294209787356 2 2 0
3473 193 17 0.06 6.045696008880283 20.462993436612376 26.30810838671877 0 0 1
2399 134 5 -0.12 4.2945036269039685 13.633438209524238 32.27162998914234 0 0 -1
229 13 13 0.06 5.608247538013146 22.18928240990063 23.395655413848047 0 -1 2
2408 134 14 0.06 3.1267539715647814 15.056275507101388 31.015702933813145 0 0 -1
222 13 6 -0.12 4.3171763399145355 19.059041785858547 22.59461867817427 0 -1 2
219 13 3 -0.12 6.89634446287764 20.530375231357883 22.58299587684625 0 -1 2
1846 103 10 0.06 2.6235924944107385 14.310818552491426 24.177897834718646 1 3 0
1837 103 1 -0.12 2.625445970691391 16.006260677504713 22.945041878917497 1 3 0