LAMMPS data file via write_data, version 29 Aug 2024, timestep = 1000000, units = real

5832 atoms
27 atom types
5616 bonds
26 bond types
10584 angles
49 angle types
14256 dihedrals
66 dihedral types

-0.2108853960344952 40.41410539604519 xlo xhi
4.51969139442226 40.2216486055634 ylo yhi
3.083228872447041 41.80034112755169 zlo zhi

Masses

1 12.011
2 12.011
3 12.011
4 12.011
5 12.011
6 12.011
7 12.011
8 12.011
9 15.999
10 1.008
11 1.008
12 1.008
13 1.008
14 1.008
15 1.008
16 1.008
17 1.008
18 1.008
19 1.008
20 1.008
21 1.008
22 1.008
23 1.008
24 1.008
25 1.008
26 1.008
27 1.008

Pair Coeffs # lj/cut/coul/long

1 0.066 3.5
2 0.066 3.5
3 0.066 3.5
4 0.066 3.5
5 0.066 3.5
6 0.066 3.5
7 0.066 3.5
8 0.066 3.5
9 0.17 3.12
10 0.03 2.5
11 0.03 2.5
12 0.03 2.5
13 0.03 2.5
14 0.03 2.5
15 0.03 2.5
16 0.03 2.5
17 0.03 2.5
18 0.03 2.5
19 0.03 2.5
20 0.03 2.5
21 0.03 2.5
22 0.03 2.5
23 0.03 2.5
24 0.03 2.5
25 0.03 2.5
26 0.03 2.5
27 0 0

Bond Coeffs # harmonic

1 268 1.529
2 268 1.529
3 268 1.529
4 268 1.529
5 268 1.529
6 268 1.529
7 268 1.529
8 320 1.41
9 340 1.09
10 340 1.09
11 340 1.09
12 340 1.09
13 340 1.09
14 340 1.09
15 340 1.09
16 340 1.09
17 340 1.09
18 340 1.09
19 340 1.09
20 340 1.09
21 340 1.09
22 340 1.09
23 340 1.09
24 340 1.09
25 340 1.09
26 553 0.945

Angle Coeffs # harmonic

1 58.35 112.7
2 58.35 112.7
3 58.35 112.7
4 58.35 112.7
5 58.35 112.7
6 58.35 112.7
7 50 109.5
8 37.5 110.7
9 37.5 110.7
10 37.5 110.7
11 37.5 110.7
12 37.5 110.7
13 37.5 110.7
14 37.5 110.7
15 37.5 110.7
16 37.5 110.7
17 37.5 110.7
18 37.5 110.7
19 37.5 110.7
20 37.5 110.7
21 37.5 110.7
22 37.5 110.7
23 37.5 110.7
24 37.5 110.7
25 55 108.5
26 33 107.8
27 37.5 110.7
28 33 107.8
29 33 107.8
30 33 107.8
31 37.5 110.7
32 33 107.8
33 33 107.8
34 33 107.8
35 37.5 110.7
36 35 109.5
37 33 107.8
38 37.5 110.7
39 33 107.8
40 37.5 110.7
41 50 109.5
42 33 107.8
43 33 107.8
44 37.5 110.7
45 37.5 110.7
46 37.5 110.7
47 37.5 110.7
48 37.5 110.7
49 37.5 110.7

Dihedral Coeffs # opls

1 1.3 -0.05 0.2 0
2 1.3 -0.05 0.2 0
3 1.3 -0.05 0.2 0
4 1.3 -0.05 0.2 0
5 1.3 -0.05 0.2 0
6 0 0 0.3 0
7 0 0 0.3 0
8 -0.35601 -0.174 0.492 0
9 0 0 0.3 0
10 0 0 0.3 0
11 0 0 0.3 0
12 0 0 0.3 0
13 0 0 0.3 0
14 0 0 0.3 0
15 0 0 0.3 0
16 0 0 0.3 0
17 0 0 0.3 0
18 0 0 0.3 0
19 0 0 0.3 0
20 0 0 0.3 0
21 0 0 0.3 0
22 0 0 0.3 0
23 0 0 0.3 0
24 0 0 0.3 0
25 0 0 0.3 0
26 0 0 0.468 0
27 0 0 0.3 0
28 0 0 0.3 0
29 0 0 0.3 0
30 0 0 0.3 0
31 0 0 0.3 0
32 0 0 0.3 0
33 0 0 0.3 0
34 0 0 0.3 0
35 0 0 0.3 0
36 0 0 0.3 0
37 0 0 0.468 0
38 0 0 0.3 0
39 0 0 0.3 0
40 0 0 0.3 0
41 0 0 0.3 0
42 1.711 -0.5 0.663 0
43 1.711 -0.5 0.663 0
44 0 0 0.468 0
45 0 0 0.3 0
46 -0.35601 -0.174 0.492 0
47 0 0 0.3 0
48 0 0 0.3 0
49 0 0 0.3 0
50 0 0 0.3 0
51 0 0 0.3 0
52 0 0 0.3 0
53 0 0 0.3 0
54 0 0 0.3 0
55 0 0 0.3 0
56 0 0 0.3 0
57 0 0 0.468 0
58 0 0 0.3 0
59 0 0 0.3 0
60 0 0 0.3 0
61 0 0 0.3 0
62 0 0 0.3 0
63 0 0 0.3 0
64 0 0 0.3 0
65 0 0 0.45 0
66 0 0 0.3 0

Atoms # full

4086 152 9 -0.6830000000000001 2.801892701623417 9.434966656878606 10.807828048016509 1 0 0
4104 152 27 0.418 3.6562976477174125 8.994619097416269 10.91368598243486 1 0 0
4059 151 9 -0.6830000000000001 4.341292392426519 9.165424225755459 5.045076176682348 1 0 0
4055 151 5 0.205 4.671901706937838 7.814686435595232 4.666837564707155 1 0 0
4056 151 6 -0.12 6.027547067388092 7.340588961617453 5.298037130010147 1 0 0
4054 151 4 -0.12 3.486144470407143 6.950107650512345 5.157552038121525 1 0 0
4070 151 20 0.06 6.014182751255345 7.30677173653941 6.428701471703388 1 0 0
4067 151 17 0.06 2.5587883474297692 7.366593376102326 4.74564068306395 1 0 0
4073 151 23 0.06 7.176255164355421 9.067779431253305 5.769727621126403 1 0 0
4068 151 18 0.06 3.3950513323080083 7.014038624748145 6.292450149046812 1 0 0
4071 151 21 0.06 6.186147981610555 6.314602433678106 4.921961496876081 1 0 0
4057 151 7 -0.12 7.209078123156556 8.231515610101177 5.073891295532684 1 0 0
4058 151 8 -0.18 8.491525509270986 7.472947561698624 5.274459978982179 1 0 0
4905 182 18 0.06 1.922445057759798 6.039601639078232 10.483714028363462 1 0 0
4053 151 3 -0.12 3.461394358260193 5.529093806311751 4.658064704014796 1 0 0
4891 182 4 -0.12 1.3454879348656144 5.124783971199241 10.15139958934945 1 0 0
4069 151 19 0.06 4.6302314869078165 7.755354528014005 3.5884519385072537 1 0 0
4077 151 27 0.418 4.976950458925413 9.723141803478029 4.611215993405654 1 0 0
592 22 25 0.06 8.081594432566913 8.108363604612983 11.287394798303938 0 0 0
836 31 26 0.06 8.08394073288114 5.419603733084851 8.46776660973012 0 1 0
4093 152 16 0.06 5.541557849257536 9.42537606618733 10.05151743477294 1 0 0
4096 152 19 0.06 2.568058802438775 9.077352257885295 8.793015623902829 1 0 0
4075 151 25 0.06 8.45242692878543 6.861294720002181 6.2150771981352095 1 0 0
4092 152 15 0.06 5.159101305941124 8.825907037508415 8.458745494014074 1 0 0
4904 182 17 0.06 1.6021572903637902 4.851632519297655 9.140898431476739 1 0 0
4089 152 12 0.06 7.843237141894869 8.893521894900283 7.797929639339912 1 0 0
4078 152 1 -0.18 7.810091719163395 9.808024938266584 8.422608714581518 1 0 0
4074 151 24 0.06 9.364410477934467 8.140366739314583 5.367404559837809 1 0 0
4087 152 10 0.06 8.155951999273569 9.646630257933012 9.441912804326137 1 0 0
4064 151 14 0.06 1.5085394063318962 5.403386904270311 5.7318757348734035 1 0 0
20 1 20 0.06 1.3430771830190744 9.972827729344685 5.165632580636441 0 0 0
4082 152 5 0.205 2.7540509200486762 9.933196961756476 9.484933398887403 1 0 0
4080 152 3 -0.12 5.293817372018706 9.737584292551734 9.031543428773116 1 0 0
4076 151 26 0.06 8.712084719948578 6.845190605944536 4.382637126962692 1 0 0
5411 201 11 0.06 9.800773780770959 10.390815231084593 5.358518288528741 1 0 0
575 22 8 -0.18 9.189666214300273 7.92981852889818 11.458124396482084 0 0 0
589 22 22 0.06 9.079958203226315 5.759153544848273 12.253140368382835 0 0 0
4072 151 22 0.06 7.2790330442526106 8.714773301495827 4.141708223130493 1 0 0
4052 151 2 -0.12 2.31836994034286 4.733119636773817 5.378193315210721 1 0 0
3915 145 27 0.418 0.8800995340738682 8.45886424278078 11.596302854146565 1 0 0
835 31 25 0.06 7.325788111222162 5.577532641084364 9.910979595259189 0 1 0
593 22 26 0.06 9.695585468179486 8.857211210997113 11.58536719722851 0 0 0
4825 179 19 0.06 6.350189224383702 8.061310076722258 12.589826481235509 1 0 0
4065 151 15 0.06 4.419896443257052 5.069215841333161 4.974310849190664 1 0 0
4097 152 20 0.06 0.7412119114325691 10.31954424498226 9.925590755879123 1 0 0
818 31 8 -0.18 7.700219319924094 4.865210206950741 9.26238120908255 0 1 0
4088 152 11 0.06 8.518282847535666 10.44291343333239 7.871477079354457 1 0 0
27 1 27 0.418 3.260162720324149 9.875572952227156 3.556139103973215 0 0 0
4066 151 16 0.06 3.3794962219910487 5.4779850505573595 3.5322003018258243 1 0 0
4907 182 20 0.06 0.004734295811758771 7.4511127386434275 9.550209709904802 1 0 0
591 22 24 0.06 9.623854486080868 7.453215454274414 10.57817261885399 0 0 0
4815 179 9 -0.6830000000000001 4.36968246754135 7.922159681595419 12.50307625229772 1 0 0
4892 182 5 0.205 -0.18198583189733603 5.333370806553534 10.08946407769559 1 0 0
3897 145 9 -0.6830000000000001 0.7438019191896532 7.848245698714352 12.305867255791595 1 0 0
4900 182 13 0.06 3.5035841771205805 4.759120780764774 11.464145134691844 1 0 0
574 22 7 -0.12 9.37356724588492 6.76756154404024 12.551679783631958 0 0 0
833 31 23 0.06 9.70481787369086 4.5747180043345725 10.247954590793903 0 1 0
4822 179 16 0.06 6.190908030548225 10.342995263902967 11.815616773216426 1 0 0
12 1 12 0.06 2.2765834205778663 15.157755189779698 7.530019585066052 0 0 0
2022 75 24 0.06 5.212977653981883 15.875883337264101 8.903179175149806 0 0 0
4081 152 4 -0.12 4.0459121764051496 10.601580132525296 9.078700779087487 1 0 0
4079 152 2 -0.12 6.46155640019909 10.501794265458361 8.37758642056379 1 0 0
4084 152 7 -0.12 1.0841035450851557 11.304252242039507 8.035740240639054 1 0 0
4083 152 6 -0.12 1.5101860398749072 10.877831866451878 9.471098535086234 1 0 0
10 1 10 0.06 2.164151449653636 15.992680369956462 5.957577477132341 0 0 0
4100 152 23 0.06 1.2069975389014602 10.502146121058571 7.3010237432599965 1 0 0
3396 126 21 0.06 2.409574137061458 12.196683134048651 12.29208482179568 1 0 1
4809 179 3 -0.12 5.5328082459484715 10.738646924192835 12.605608361876811 1 0 0
4817 179 11 0.06 5.8510845934944955 14.244302805543308 12.128808345332287 1 0 0
2002 75 4 -0.12 9.732764118370145 12.861727062120988 9.923022529406037 0 0 0
21 1 21 0.06 0.41925258378795227 11.392360821105958 5.127162149952785 0 0 0
11 1 11 0.06 3.6186175998063526 15.938574376367319 7.045194163545061 0 0 0
6 1 6 -0.12 0.9084178135407539 10.669293631173545 4.512549715366507 0 0 0
4807 179 1 -0.18 5.942418332155739 13.12817431837344 11.861389684510618 1 0 0
4091 152 14 0.06 6.330411632350539 10.782503853924204 7.337828731128802 1 0 0
2 1 2 -0.12 3.3314594410126825 14.122555817177243 6.083070266803491 0 0 0
2004 75 6 -0.12 8.0204659063087 14.707574976000684 9.404186595998167 0 0 0
4821 179 15 0.06 4.523409845447556 10.677464090721562 12.186681356766954 1 0 0
4090 152 13 0.06 6.4862754707479136 11.422599197360517 8.976409446303109 1 0 0
2016 75 18 0.06 9.585897830071149 12.907571399167601 8.832798666161382 0 0 0
5 1 5 0.205 1.9917613901374245 11.380030452447931 3.71911096251731 0 0 0
18 1 18 0.06 3.792066167991261 12.642336013949453 3.9399657286254284 0 0 0
14 1 14 0.06 3.6258681241466464 13.32776618952358 6.812848587613113 0 0 0
15 1 15 0.06 1.3984539725772351 13.271185550924285 5.759452592710897 0 0 0
602 23 8 -0.18 7.6452163059452305 14.915208075441395 5.224870762301075 0 0 1
2017 75 19 0.06 8.891800657752004 14.236443733357909 11.324151277427257 0 0 0
3400 126 25 0.06 2.7247570135073373 13.433944924390136 10.242222379402513 1 0 1
2003 75 5 0.205 9.2126912641452 14.307385410923228 10.298552276261425 0 0 0
2005 75 7 -0.12 7.293548722790883 16.013424581476038 9.719691114094653 0 0 0
17 1 17 0.06 3.4020794467493856 11.611432204421586 5.266576795059222 0 0 0
615 23 21 0.06 8.81190953221487 13.111446535608287 3.607136242641449 0 0 1
617 23 23 0.06 5.9889583740789725 14.294576175816285 4.063188468331312 0 0 1
4 1 4 -0.12 2.9620893343394137 12.21507009534296 4.508655493261944 0 0 0
620 23 26 0.06 7.329348598664938 14.415183115628391 6.13388941521419 0 0 1
4816 179 10 0.06 5.115030082461563 12.876379387867983 11.192438726075723 1 0 0
3397 126 22 0.06 0.6726509951456535 13.634391739564277 11.707279917173755 1 0 1
4095 152 18 0.06 3.933578399163663 11.007246035982153 8.029514623831606 1 0 0
1 1 1 -0.18 2.7914124302181755 15.431647572084515 6.673257430364876 0 0 0
16 1 16 0.06 2.026527729224479 14.218445308458827 4.395261148653619 0 0 0
4098 152 21 0.06 1.51259590786257 11.780546253521234 10.068057896913938 1 0 0
3398 126 23 0.06 1.3121209386560102 15.03375924269598 12.389669899935164 1 0 1
2018 75 20 0.06 8.372296652604398 14.698727363888938 8.340535611252042 0 0 0
600 23 6 -0.12 7.725896806156671 12.947268947014496 3.694343211106345 0 0 1
3382 126 7 -0.12 1.6574480685250619 14.041206018522608 11.956338181355086 1 0 1
618 23 24 0.06 8.717705110127389 14.906544461525138 5.3226995391763126 0 0 1
619 23 25 0.06 7.312743830456265 15.930776149812683 5.3446460870899575 0 0 1
3383 126 8 -0.18 2.410684991302927 14.387476956387365 10.70474094078376 1 0 1
3 1 3 -0.12 2.321579755330094 13.45815600108429 5.177018494160797 0 0 0
614 23 20 0.06 7.529031456131879 12.46456371646761 4.619253018981583 0 0 1
601 23 7 -0.12 7.05775460652157 14.333889557107145 3.9714436875356114 0 0 1
3399 126 24 0.06 3.3820739133066624 14.818652694894896 11.01075496907504 1 0 1
13 1 13 0.06 4.21154583645963 14.48783950193336 5.549891486410059 0 0 0
2019 75 21 0.06 7.155158033662895 14.002381715899515 9.39507933324129 0 0 0
3401 126 26 0.06 1.7660999529571675 14.90904769410873 10.017327254468622 1 0 1
4094 152 17 0.06 4.16775780847255 11.461164386803702 9.79391877539993 1 0 0
2015 75 17 0.06 8.926984717589715 12.084853317812225 10.151598590706445 0 0 0
4099 152 22 0.06 1.7290484328014812 12.050163214176381 7.570348309543852 1 0 0
2020 75 22 0.06 6.947042887733459 16.12532131985871 10.771967799886239 0 0 0
4818 179 12 0.06 6.843830712136719 12.849938213765968 11.31178600457108 1 0 0
616 23 22 0.06 7.146165710965794 14.973365472354132 3.157454015749593 0 0 1
220 9 4 -0.12 7.716307201876355 9.37198620713418 17.37039866252443 0 0 0
221 9 5 0.205 9.023904722596457 10.14024600030179 17.47790994371736 0 0 0
234 9 18 0.06 7.163958687585428 9.832401970596116 16.576411345763034 0 0 0
4827 179 21 0.06 6.723965850577987 7.433648458394064 14.783925293600635 1 0 0
219 9 3 -0.12 6.927345296353835 9.329973222357854 18.690320975376398 0 0 0
233 9 17 0.06 7.783174932088556 8.390733010468828 16.87379205569475 0 0 0
232 9 16 0.06 7.593789514447887 9.035532694407731 19.508894825973954 0 0 0
230 9 14 0.06 4.814473019680311 8.675608264282769 18.019760713234017 0 0 0
218 9 2 -0.12 5.7255138878097664 8.39492128213162 18.586905036795144 0 0 0
4826 179 20 0.06 4.964159729034577 7.3531224907675306 15.106588402517579 1 0 0
4812 179 6 -0.12 5.738685992308245 7.20353677470885 14.311227107924882 1 0 0
3903 145 15 0.06 2.006701485521248 7.045353494535659 14.99797384856049 1 0 0
229 9 13 0.06 6.121263984863584 7.555715672917083 18.07064004614422 0 0 0
227 9 11 0.06 4.794233780999474 6.8526684255037225 19.86975132269115 0 0 0
4823 179 17 0.06 6.486549190946523 9.676145573525334 14.196262409416873 1 0 0
217 9 1 -0.18 5.149935613224 7.898363240043825 19.883176183382197 0 0 0
228 9 12 0.06 4.2888548067449666 8.485967569348324 20.180580690948762 0 0 0
226 9 10 0.06 5.950153529386871 7.986343042127509 20.67976596834543 0 0 0
231 9 15 0.06 6.615479256413422 10.352218975547212 18.945165677792193 0 0 0
3891 145 3 -0.12 1.1486609633206275 6.410870675363251 14.810359894379207 1 0 0
4810 179 4 -0.12 5.532076118408426 9.673350095063338 13.739894554559315 1 0 0
4829 179 23 0.06 4.704657014665241 5.5497016453997805 13.432974595385707 1 0 0
3376 126 1 -0.18 0.9835826017494533 9.647294880368612 18.029435660364665 1 0 1
3387 126 12 0.06 1.4566933540291815 9.082653730358617 18.817646627304505 1 0 1
118 5 10 0.06 0.846482325715358 5.675277784795649 20.02919383956021 0 0 0
3907 145 19 0.06 0.6902445241800076 9.066584175215851 13.92158551517792 1 0 0
120 5 12 0.06 1.8544211053905628 7.088576866344885 20.558265664371053 0 0 0
119 5 11 0.06 2.284496885795602 6.036163644617557 19.02274589585267 0 0 0
590 22 23 0.06 8.612877562529485 7.029795492720755 13.313264187492088 0 0 0
3890 145 2 -0.12 1.0932749477406978 5.525826562398874 16.04787699666551 1 0 0
3904 145 16 0.06 1.6041029202172867 5.847976968286461 13.980239298881498 1 0 0
4814 179 8 -0.18 6.026813137315759 4.826057492334111 15.038960605101481 1 0 0
3902 145 14 0.06 0.7755718725544949 6.075427785788522 16.91078639245724 1 0 0
3377 126 2 -0.12 1.992165872225978 9.887009835185705 16.884384372088057 1 0 1
4813 179 7 -0.12 5.7327470011281685 5.711308612971092 13.91146999994841 1 0 0
4811 179 5 0.205 5.532780387978294 8.201709905090588 13.250843294813635 1 0 0
3389 126 14 0.06 2.102196079324528 9.083188577305492 16.146318493368383 1 0 1
4832 179 26 0.06 5.5653821180503975 4.901285443999577 16.062559280242446 1 0 0
4828 179 22 0.06 6.45374355478172 5.307884930391088 13.211962715160281 1 0 0
1987 74 16 0.06 8.26615060476155 5.148509763517411 17.963485366484647 0 0 0
4831 179 25 0.06 7.048167671647379 5.072042473258829 15.45021911208591 1 0 0
1974 74 3 -0.12 9.028130273582905 4.716141586482435 18.662931800771286 0 0 0
3901 145 13 0.06 0.27730916239915737 4.847774579986454 15.883774551822714 1 0 0
3889 145 1 -0.18 2.3361343836893016 4.733810964329003 16.308950054119023 1 0 0
237 9 21 0.06 9.396782053958171 9.407795941196218 15.46425700671034 0 0 0
109 5 1 -0.18 1.8570588984058003 6.079276995589575 20.025167856152056 0 0 0
4833 179 27 0.418 3.5685087335171017 8.098283790171635 12.963727982923322 1 0 0
3900 145 12 0.06 3.1568040279192076 5.390650134749031 16.535418579199643 1 0 0
3893 145 5 0.205 0.0119071539954346 8.31624125581541 13.401203591681249 1 0 0
5659 210 16 0.06 0.2075704591668634 9.173101069711064 21.239033306683716 1 0 0
1984 74 13 0.06 7.939755629672431 4.590808835758072 20.575631088491654 0 0 0
4824 179 18 0.06 4.6987368948929715 9.79751738704643 14.434659205259956 1 0 0
3385 126 10 0.06 0.01661810932023733 9.094889707828404 17.657405218812162 1 0 1
3388 126 13 0.06 3.0024429733487046 10.107799672248726 17.25287754064412 1 0 1
1975 74 4 -0.12 9.888648819036819 5.842437715115864 19.12964641067635 0 0 0
225 9 9 -0.6830000000000001 9.708828392743532 9.459943615028944 18.46601238067836 0 0 0
1103 41 23 0.06 8.112213163806441 9.817354677123252 22.386320099842994 0 0 0
110 5 2 -0.12 2.5808130387380497 5.0139186760847565 20.88789084693105 0 0 0
576 22 9 -0.6830000000000001 9.913556331296638 5.118259111460917 14.922723204968902 0 0 0
222 9 6 -0.12 9.68064378368747 10.191975808273526 16.043969858037627 0 0 0
122 5 14 0.06 3.5466431473543216 5.332641699796782 21.226927023917703 0 0 0
1989 74 18 0.06 9.397230157970975 6.782189602293018 19.306205565401942 0 0 0
3892 145 4 -0.12 -0.12218060336462866 7.22960412429033 14.461297449569216 1 0 0
243 9 27 0.418 9.727574297886713 10.080500013375826 19.209205832020917 0 0 0
2295 85 27 0.418 6.259819015872188 15.472458949587919 21.65262223306723 0 0 -1
487 19 1 -0.18 0.500582051843544 14.692518731462522 18.698176939525442 0 0 0
2276 85 8 -0.18 4.692451175296992 11.256526010044311 22.020478101260494 0 0 -1
3381 126 6 -0.12 2.4133195000142322 13.087024460701194 12.882506555821053 1 0 1
502 19 16 0.06 0.18311897727801474 13.826465502348766 21.17924111920048 0 0 0
1107 41 27 0.418 9.197275229988298 12.177092263816789 20.090546747309965 0 0 0
2275 85 7 -0.12 4.950479888638535 12.701130129384655 22.286273624391477 0 0 -1
238 9 22 0.06 8.434343860658656 11.816513707224228 15.41299087662638 0 0 0
3386 126 11 0.06 0.8150049097845942 10.541156432650514 18.562389251799175 1 0 1
5345 198 26 0.06 5.291736178191296 15.57790824003 13.751311110909873 1 0 1
498 19 12 0.06 0.2979893246235179 15.239940447790339 17.775678567428198 0 0 0
5341 198 22 0.06 3.192884588705248 16.089603471164693 12.94232025993029 1 0 1
497 19 11 0.06 1.1819310861279477 15.2891951733653 19.22735833697698 0 0 0
4808 179 2 -0.12 5.864968108707145 12.170447463144539 13.102765717282237 1 0 0
5327 198 8 -0.18 4.649557618216702 16.07961684341752 14.498446375020574 1 0 1
2294 85 26 0.06 5.430796555075778 10.827011696848945 21.328982078574555 0 0 -1
223 9 7 -0.12 9.444897259433546 11.516189540405001 15.339365513033233 0 0 0
1089 41 9 -0.6830000000000001 9.280170868512753 11.325008079911711 20.50482934346414 0 0 0
3394 126 19 0.06 0.5826044477277306 12.686653718518834 14.065014333859652 1 0 1
4820 179 14 0.06 6.861300152003714 12.192697871154603 13.472873981510183 1 0 0
5799 215 21 0.06 4.251027106801457 15.532346529844105 18.907569826579156 1 0 0
2889 107 27 0.418 8.487310018526262 14.40498596689789 20.66827604718221 0 1 0
2875 107 13 0.06 5.058452225769729 11.865946812302441 18.515930842493074 0 1 0
2868 107 6 -0.12 9.307577004854984 16.182343447488385 18.85920773924189 0 1 0
4819 179 13 0.06 5.156447273872666 12.425301966709497 13.892125053092544 1 0 0
2876 107 14 0.06 4.69691590930216 13.340152988185947 19.21192441327862 0 1 0
3379 126 4 -0.12 2.220026257210887 11.59123743430002 14.947419245303594 1 0 1
3391 126 16 0.06 1.1661281020798433 11.908126131483836 16.710401232411453 1 0 1
3380 126 5 0.205 1.671680266381546 12.825052434731719 14.250489058120257 1 0 1
2277 85 9 -0.6830000000000001 7.1124644268687724 15.0610966190818 21.855463254923464 0 0 -1
5783 215 5 0.205 3.4078712816289056 15.9922537509852 20.789050351971362 1 0 0
5344 198 25 0.06 4.233927676471691 15.277059715803583 15.022790639403384 1 0 1
3390 126 15 0.06 0.3014220984447631 10.800253206863744 15.775520331693487 1 0 1
2872 107 10 0.06 3.3048276872923275 13.066832874749304 17.36198060567073 0 1 0
3402 126 27 0.418 1.284794137692366 14.717099870316316 14.568721422080312 1 0 1
5787 215 9 -0.6830000000000001 4.548279697083987 16.21131959618434 21.610782151790982 1 0 0
235 9 19 0.06 8.790564797625025 11.189653974151064 17.747967766201818 0 0 0
5797 215 19 0.06 3.0959381157430177 14.98036281851841 20.94870087839091 1 0 0
2871 107 9 -0.6830000000000001 9.076406248500115 14.07832994640943 20.014121566637684 0 1 0
2865 107 3 -0.12 6.7705714198783475 13.21176046014447 18.34095809773213 0 1 0
2880 107 18 0.06 6.660239956265147 15.29852429183168 19.09791673217649 0 1 0
3378 126 3 -0.12 1.3109446918766046 11.036673807569894 16.065441921728333 1 0 1
2874 107 12 0.06 4.689863116227564 12.804719193994273 16.261377424334782 0 1 0
2863 107 1 -0.18 4.349581158942041 13.34987170529477 17.13118159302998 0 1 0
3393 126 18 0.06 2.4576485438231037 10.823927393051136 14.18053240079654 1 0 1
2864 107 2 -0.12 5.204742766923283 12.94840943582732 18.36135610156336 0 1 0
2866 107 4 -0.12 7.263645921600397 14.668047059077134 18.450877122075262 0 1 0
2291 85 23 0.06 4.821467052565524 13.30498936189258 21.364038812812467 0 0 -1
2867 107 5 0.205 8.750632021638179 14.729734302802127 18.809439752422698 0 1 0
3384 126 9 -0.6830000000000001 1.8015092183104864 14.044329174585114 14.934485269467181 1 0 1
2878 107 16 0.06 7.223761034997712 12.788261893839358 17.503870048087396 0 1 0
3392 126 17 0.06 3.2258162620827915 11.697787470406592 15.276745118124424 1 0 1
2877 107 15 0.06 7.180342985442204 12.636512662618333 19.172705042378254 0 1 0
2881 107 19 0.06 9.146621502627456 14.139164093717431 17.97047225002687 0 1 0
2879 107 17 0.06 7.303433322426532 15.041738428909996 17.435775558700925 0 1 0
2873 107 11 0.06 4.390184404691851 14.415920121256104 16.837398860829186 0 1 0
2288 85 20 0.06 7.076428125834998 12.61380099868876 21.70911957018251 0 0 -1
2293 85 25 0.06 3.6831543099569752 11.002863426948167 21.665257908521234 0 0 -1
5798 215 20 0.06 2.8622565800711195 16.39878646881016 18.78575611775723 1 0 0
496 19 10 0.06 1.101911328971595 13.78392006687391 18.584067245148088 0 0 0
2907 108 18 0.06 9.687006410686706 15.135047656038173 13.81049475452304 0 1 1
5784 215 6 -0.12 3.772217410294584 16.337647253552966 19.38596440180314 1 0 0
224 9 8 -0.18 9.654868053456267 11.31319581218925 13.836878009651736 0 0 0
3395 126 20 0.06 3.50229540836799 13.482157216189123 13.119581115273393 1 0 1
240 9 24 0.06 8.719417455405738 10.96734288418033 13.377654973706802 0 0 0
275 11 5 0.205 3.6609638089899104 9.33730505514231 29.107918981068444 0 0 0
273 11 3 -0.12 2.7718393265394976 8.760634441808005 31.534665026734867 0 0 0
274 11 4 -0.12 4.004997076766015 8.75273181428214 30.56409641639025 0 0 0
287 11 17 0.06 4.8757591724295875 9.230984879252457 30.9613054186556 0 0 0
289 11 19 0.06 2.9487789992949676 8.777880220464077 28.688543315258745 0 0 0
276 11 6 -0.12 4.776106329843822 9.242418378300517 28.0824301686931 0 0 0
288 11 18 0.06 4.306593724481539 7.67999927393064 30.443813374660657 0 0 0
291 11 21 0.06 5.014915428500346 8.206416202169533 27.80864560641287 0 0 0
285 11 15 0.06 2.3497929157978046 9.764263204058413 31.518630422024682 0 0 0
1732 65 4 -0.12 7.937311778138396 6.937803895440289 29.77439377636789 0 2 0
1746 65 18 0.06 7.74452701356848 8.00231519027502 29.716854739394304 0 2 0
292 11 22 0.06 3.855437870390471 9.621033203105933 26.25173562448787 0 0 0
2660 99 14 0.06 2.71916215738496 6.053299751706769 25.223827252494317 0 1 0
2648 99 2 -0.12 3.6323361476646268 6.384979523030474 25.600025725231678 0 1 0
2647 99 1 -0.18 4.547409706799902 6.8533972521317965 24.478334008319386 0 1 0
290 11 20 0.06 5.705654217109108 9.470845931010047 28.47710205155503 0 0 0
2659 99 13 0.06 3.3958063946684653 7.245345714506177 26.259677801713362 0 1 0
1733 65 5 0.205 6.984640866376007 6.341785811838465 30.808555613196457 0 2 0
277 11 7 -0.12 4.59382205598204 10.095324899298703 26.82724421925576 0 0 0
278 11 8 -0.18 5.878226387212922 10.218366628702865 25.93154639356076 0 0 0
2663 99 17 0.06 4.109848675729403 5.8152818274658555 28.383521226283406 0 1 0
1731 65 3 -0.12 8.026151149723539 6.226584870826766 28.41571526150845 0 2 0
2657 99 11 0.06 5.618086766554874 6.953802595132749 24.656295738701083 0 1 0
1747 65 19 0.06 5.985204543969165 6.4907676254359075 30.340681419908293 0 2 0
294 11 24 0.06 6.466399585105409 9.376070457923117 26.153500386563888 0 0 0
271 11 1 -0.18 1.6787614589788513 6.419288781867019 30.953393487097127 0 0 0
1743 65 15 0.06 7.121675735693093 6.398087924785401 27.874276765753812 0 2 0
282 11 12 0.06 2.424561931015778 6.196166437921738 30.21778534532754 0 0 0
295 11 25 0.06 5.661918666432601 10.17957600837856 24.872028218510305 0 0 0
2649 99 3 -0.12 4.250619488002641 5.1224993457007795 26.33678086061099 0 1 0
1739 65 11 0.06 8.525831895939449 8.34618587282409 26.60818883374657 0 2 0
1744 65 16 0.06 8.036984436683662 5.154566821193579 28.48840316044035 0 2 0
2650 99 4 -0.12 3.8291732102948464 4.972835885209631 27.76495851324987 0 1 0
284 11 14 0.06 0.7705599489327474 8.005018759780368 31.904680962989787 0 0 0
1104 41 24 0.06 8.33037092152437 7.465296669800509 22.881902465174477 0 0 0
283 11 13 0.06 1.017873426660605 8.401626452605628 30.452131654563704 0 0 0
123 5 15 0.06 1.4718368864526217 5.110232031262197 22.82819599403021 0 0 0
272 11 2 -0.12 1.5313195167757603 7.889879583970977 31.20133556851162 0 0 0
1088 41 8 -0.18 8.731553274517024 8.220371966803595 23.508141398632777 0 0 0
5655 210 12 0.06 2.146254103042536 8.858457055912623 24.490045940248574 1 0 0
1105 41 25 0.06 8.128523152930692 8.191168874657006 24.373234432870667 0 0 0
280 11 10 0.06 0.7037483777029967 5.99502323887053 30.825210698332757 0 0 0
1737 65 9 -0.6830000000000001 7.290698476070576 5.008359496588919 30.81619074750166 0 2 0
1745 65 17 0.06 8.938278092788801 6.87180511280237 30.166527087542935 0 2 0
2658 99 12 0.06 4.196391079078793 7.738112843312399 24.039202853448813 0 1 0
1106 41 26 0.06 9.652838004758722 7.713067216383024 23.819049414619144 0 0 0
2664 99 18 0.06 2.739753745179814 5.036732680526506 27.964758167430357 0 1 0
2656 99 10 0.06 4.519172496022144 6.079690231672972 23.656435633216486 0 1 0
5644 210 1 -0.18 1.5668464265863253 9.264132089238323 23.68935713848445 1 0 0
1087 41 7 -0.12 8.986767253677781 9.57648845381047 22.94631624953833 0 0 0
2662 99 16 0.06 5.314443682602664 5.284059844969306 26.150617234539634 0 1 0
1730 65 2 -0.12 9.186896570250342 6.546206699906252 27.543208984769215 0 2 0
5653 210 10 0.06 0.9713953932295103 10.09683214404459 24.087449886446688 1 0 0
1729 65 1 -0.18 9.327752670379297 7.9730552230854475 27.186398845928288 0 2 0
1102 41 22 0.06 9.077080840128929 10.291834496074014 23.784641033997403 0 0 0
179 7 17 0.06 -0.0688679469493311 9.548220967393657 28.283799383377296 0 0 -1
5645 210 2 -0.12 0.667906842651179 8.252244797614395 22.994591259513722 1 0 0
1738 65 10 0.06 9.335069598110731 8.630594887438809 28.050441660792064 0 2 0
1269 47 27 0.418 8.615311617320573 4.814205136467967 32.11978902007486 0 0 0
1741 65 13 0.06 9.229035668081186 5.917687596777144 26.61470445734851 0 2 0
1755 65 27 0.418 7.060240206858097 4.626986919065103 29.956715081822438 0 2 0
5654 210 11 0.06 2.129447199046614 9.66299091484293 22.83715887107197 1 0 0
281 11 11 0.06 2.215856231046817 6.042664622718759 31.804674834648438 0 0 0
1446 54 15 0.06 8.385977881072176 10.4430300944965 31.29589707773811 0 0 0
5657 210 14 0.06 0.2558256557027816 7.55185826701924 23.705145249350842 1 0 0
3828 142 21 0.06 9.93032424663253 5.091347668906604 23.050585736427667 0 1 0
5656 210 13 0.06 1.264311678645949 7.548199947453247 22.449017695786196 1 0 0
296 11 26 0.06 6.5006394636632345 11.055467909465232 26.284358195492118 0 0 0
1124 42 17 0.06 9.763043097845832 15.332377890413515 30.758579426488048 0 0 0
624 24 3 -0.12 3.702263562447823 15.730442355023618 31.622605401405707 0 0 0
2284 85 16 0.06 8.4359876486626 16.383575042642214 23.622859794948386 0 0 -1
1227 46 12 0.06 9.484605064327903 12.650942129855245 27.829320149853565 0 0 0
2283 85 15 0.06 8.400628323577319 15.570076735358901 25.16444742673217 0 0 -1
2274 85 6 -0.12 6.446478611349945 12.817618788160777 22.578994438888895 0 0 -1
279 11 9 -0.6830000000000001 3.3068799761721075 10.677905691945444 29.244019244374588 0 0 0
297 11 27 0.418 4.131729613433024 11.129089798760482 29.548425560547926 0 0 0
293 11 23 0.06 4.284981087203309 11.079046073946028 26.949651174246146 0 0 0
187 7 25 0.06 2.8206229027925933 14.484878206123199 25.34869254599717 0 0 -1
167 7 5 0.205 0.09701767418181251 11.701381150528123 27.931399454649604 0 0 -1
2290 85 22 0.06 4.517803926461331 13.251255923538503 23.173148805341548 0 0 -1
189 7 27 0.418 1.5699512343297746 11.36523124666913 29.23144401068059 0 0 -1
2271 85 3 -0.12 8.797391866992953 15.555973108679817 24.169663099094016 0 0 -1
1451 54 20 0.06 5.906233112652106 14.423359328910244 30.50143909496812 0 0 0
1458 54 27 0.418 4.950937858492757 11.921487313671161 31.24086245525859 0 0 0
637 24 16 0.06 3.932809935474218 14.657674946007985 31.8278073419313 0 0 0
1438 54 7 -0.12 6.185624553909371 13.55173673394156 28.382093945814148 0 0 0
627 24 6 -0.12 3.7629111976134055e-05 14.909767769956431 30.38772097203542 0 0 0
1226 46 11 0.06 8.995380461498609 11.036721010383435 27.155489454323188 0 0 0
1440 54 9 -0.6830000000000001 5.429454663115823 11.754853587670853 30.475703365378287 0 0 0
171 7 9 -0.6830000000000001 0.7973046383642117 11.988029384885216 29.163028757069036 0 0 -1
2286 85 18 0.06 8.686279943594815 13.420951349438223 24.271596319181654 0 0 -1
183 7 21 0.06 0.5667485315004267 11.751828589483996 25.911163189349868 0 0 -1
513 19 27 0.418 -0.20823816143082752 14.720224321812092 23.22450147369121 0 0 0
168 7 6 -0.12 1.1231958588928332 11.924931299230636 26.775920795060713 0 0 -1
2273 85 5 0.205 7.008704619902858 14.245275359430842 23.01598173937712 0 0 -1
2292 85 24 0.06 4.791241225938855 10.791876996319246 22.908610560968288 0 0 -1
1455 54 24 0.06 5.656912657506677 14.697693471731377 26.60157767879832 0 0 0
1454 54 23 0.06 5.323295487639458 12.914574089377917 28.24513129198458 0 0 0
1456 54 25 0.06 5.152731807053273 15.495111113647067 28.129974553340155 0 0 0