LAMMPS data file via write_data, version 29 Aug 2024, timestep = 1000000, units = real

5145 atoms
15 atom types
4802 bonds
14 bond types
8575 angles
25 angle types
10290 dihedrals
30 dihedral types

1.3458340245203928 38.27609597547749 xlo xhi
1.1697039095440864 38.54718609044317 ylo yhi
0.31362180194421896 37.43753819803713 zlo zhi

Masses

1 12.011
2 12.011
3 12.011
4 12.011
5 15.999
6 1.008
7 1.008
8 1.008
9 1.008
10 1.008
11 1.008
12 1.008
13 1.008
14 1.008
15 1.008

Pair Coeffs # lj/cut/coul/long

1 0.066 3.5
2 0.066 3.5
3 0.066 3.5
4 0.066 3.5
5 0.17 3.12
6 0.03 2.5
7 0.03 2.5
8 0.03 2.5
9 0.03 2.5
10 0.03 2.5
11 0.03 2.5
12 0.03 2.5
13 0.03 2.5
14 0.03 2.5
15 0 0

Bond Coeffs # harmonic

1 268 1.529
2 268 1.529
3 268 1.529
4 320 1.41
5 340 1.09
6 340 1.09
7 340 1.09
8 340 1.09
9 340 1.09
10 340 1.09
11 340 1.09
12 340 1.09
13 340 1.09
14 553 0.945

Angle Coeffs # harmonic

1 58.35 112.7
2 58.35 112.7
3 50 109.5
4 37.5 110.7
5 37.5 110.7
6 37.5 110.7
7 37.5 110.7
8 37.5 110.7
9 37.5 110.7
10 37.5 110.7
11 37.5 110.7
12 37.5 110.7
13 55 108.5
14 33 107.8
15 58.35 112.7
16 50 109.5
17 33 107.8
18 33 107.8
19 33 107.8
20 33 107.8
21 33 107.8
22 33 107.8
23 33 107.8
24 33 107.8
25 50 109.5

Dihedral Coeffs # opls

1 0 0 0.3 0
2 0 0 0.3 0
3 0 0 0.3 0
4 -0.35601 -0.174 0.492 0
5 -0.35601 -0.174 0.492 0
6 0 0 0.468 0
7 0 0 0.468 0
8 0 0 0.468 0
9 0 0 0.3 0
10 0 0 0.3 0
11 -0.35601 -0.174 0.492 0
12 0 0 0.3 0
13 0 0 0.3 0
14 0 0 0.3 0
15 0 0 0.3 0
16 0 0 0.3 0
17 0 0 0.468 0
18 0 0 0.3 0
19 0 0 0.468 0
20 0 0 0.3 0
21 0 0 0.468 0
22 0 0 0.3 0
23 0 0 0.3 0
24 0 0 0.3 0
25 0 0 0.3 0
26 0 0 0.468 0
27 0 0 0.3 0
28 0 0 0.468 0
29 0 0 0.468 0
30 0 0 0.3 0

Atoms # full

2161 145 1 0.265 5.067136680009394 8.66747438683827 4.817887704175606 1 1 0
2171 145 11 0.06 6.669700408778824 10.091809267315885 5.107010106823297 1 1 0
3859 258 4 -0.18 4.407704648180825 3.612415493883141 3.7816510586596546 1 0 1
3867 258 12 0.06 5.356665108712281 4.039315628259574 3.8492161083002547 1 0 1
3868 258 13 0.06 3.964425868699127 3.6381821889051746 4.733149320049824 1 0 1
3183 213 3 -0.18 8.72494995401091 2.370633237734623 2.4654349161283804 1 1 0
481 33 1 0.265 6.952376541026636 2.342341838590644 8.626504313869152 0 1 0
2166 145 6 0.06 4.625411203024826 8.058740434329671 2.691414537311539 1 1 0
2163 145 3 -0.18 6.35536070864406 9.33417683551962 4.412913925907519 1 1 0
489 33 9 0.06 6.737645750235228 1.3447311276471312 6.669144919734097 0 1 0
491 33 11 0.06 5.585110202860834 2.6479269142485826 6.935663946254754 0 1 0
483 33 3 -0.18 6.592972172676978 2.3214169750336238 7.119458355080721 0 1 0
20 2 5 -0.6830000000000001 1.7268201814723592 8.831274317273756 6.843291805172751 1 0 0
485 33 5 -0.6830000000000001 7.027969725245715 3.656600828479542 9.149107160259899 0 1 0
2170 145 10 0.06 7.149577003289551 8.576713058807005 4.486292364653708 1 1 0
3869 258 14 0.06 3.9846704456093534 4.350107208540004 3.1602516346542853 1 0 1
2921 195 11 0.06 12.312519899384217 1.7109381151427718 6.705614526791328 0 1 1
4327 289 7 0.06 7.480420551671871 10.171467296098928 1.5855493764747648 1 1 1
3862 258 7 0.06 2.4847314140585475 2.383470867638141 1.9924684823971446 1 0 1
494 33 14 0.06 9.164137922775799 2.0544875176228308 8.323650710341438 0 1 0
2167 145 7 0.06 3.5316712061461013 7.583578534585862 3.826237375953576 1 1 0
3026 202 11 0.06 2.6064469637816585 5.126199730072253 7.190113398385327 1 0 1
4353 291 3 -0.18 5.703385435123823 5.527680369710582 0.6338011021391194 1 0 1
4359 291 9 0.06 6.138537966767944 4.958028997475502 1.418529906348045 1 0 1
3025 202 10 0.06 1.575489202034994 5.654083324034548 5.862543889346169 1 0 1
447 30 12 0.06 1.890745953834673 5.178116513629834 1.7078316868128443 0 1 0
439 30 4 -0.18 1.479027263145877 5.244973415134105 2.7019165543650505 0 1 0
482 33 2 -0.18 5.992803310636064 1.5506930187750747 9.431427355636533 0 1 0
30 2 15 0.418 2.39119230945966 9.347596903954615 6.434487961513324 1 0 0
2274 152 9 0.06 13.290961919148877 10.108722063797694 7.266553220976585 0 0 0
4328 289 8 0.06 7.938208504487654 8.556399550293914 1.6170316085912282 1 1 1
3022 202 7 0.06 2.3905234842529777 2.5688908889087823 6.39599792830399 1 0 1
1169 78 14 0.06 10.88451271397103 8.684535449438169 3.978664781846322 0 0 0
2164 145 4 -0.18 5.168809676117775 8.002813489212222 6.23551924927489 1 1 0
2165 145 5 -0.6830000000000001 4.048678917269809 9.70254620812832 4.999636389685204 1 1 0
490 33 10 0.06 7.229008100462038 3.040736790313423 6.615183306295014 0 1 0
2162 145 2 -0.18 4.573007777899754 7.678995644382355 3.699504940253364 1 1 0
2174 145 14 0.06 5.841265614369247 7.142902377495864 6.263465687933432 1 1 0
2172 145 12 0.06 4.173699890506493 7.720861448987615 6.560108215892061 1 1 0
3018 202 3 -0.18 1.5486497292561088 5.252140706563024 6.909109090383714 1 0 1
2997 200 12 0.06 13.460142338118619 3.954969934031719 3.610534988969491 0 0 1
616 42 1 0.265 10.572350675493624 5.697448646876416 9.400109381064517 0 0 1
495 33 15 0.418 6.1855172736171555 4.099965628339412 9.000028174205516 0 1 0
2175 145 15 0.418 4.468362407086893 10.390196928413491 5.548440339795662 1 1 0
1338 90 3 -0.18 13.654232317844558 8.94903749851223 1.2149772192171078 0 1 1
3860 258 5 -0.6830000000000001 5.2640629969701305 2.2472068927051096 1.9787337536663974 1 0 1
2168 145 8 0.06 4.987879555093812 6.665344748852015 3.688075689692553 1 1 0
486 33 6 0.06 5.03372659472152 2.047994757791588 9.427742059468132 0 1 0
4030 269 10 0.06 4.227562151605877 9.000415708006617 9.110193232496652 0 1 0
1165 78 10 0.06 10.658809039230555 6.891356696894876 6.059189028002917 0 0 0
3190 213 10 0.06 8.0119719509648 3.0459760912088987 2.8792826771437308 1 1 0
1167 78 12 0.06 9.080889072772148 8.552433124195769 3.6859416969626033 0 0 0
4322 289 2 -0.18 7.481914910574122 9.259105307335368 1.0083483969879752 1 1 1
2173 145 13 0.06 5.565933072953077 8.700433487077689 6.964722393499037 1 1 0
3029 202 14 0.06 1.8840527591858027 3.1781939516887716 8.756050858337291 1 0 1
4031 269 11 0.06 4.869765409105382 7.418877840654182 9.320331187958223 0 1 0
2919 195 9 0.06 13.4314350157992 3.1469976487865186 6.167377017955807 0 1 1
2920 195 10 0.06 12.997820522545933 2.928448309655021 7.680664588792862 0 1 1
3188 213 8 0.06 9.555497852421228 2.541317349802938 5.256068549415112 1 1 0
1159 78 4 -0.18 10.060174207662783 8.12433853285158 3.4473307463718004 0 0 0
1162 78 7 0.06 9.054280512683116 4.875369519526611 3.6834961745533694 0 0 0
3181 213 1 0.265 10.099018607387706 1.9355183046293867 3.2275159010420973 1 1 0
2913 195 3 -0.18 13.244167098801004 2.355207698708256 6.857322577430136 0 1 1
623 42 8 0.06 12.169248382396663 7.2194692320790885 9.400258927046144 0 0 1
3863 258 8 0.06 2.278052170459513 1.6715908837144644 3.504273303649582 1 0 1
4360 291 10 0.06 4.847069552656073 6.0711313159847204 1.0098101578648162 1 0 1
448 30 13 0.06 1.9838183340527182 4.586972253014237 3.2629944347336286 0 1 0
1161 78 6 0.06 8.14808071322853 6.160358701172353 3.0553276879215154 0 0 0
1350 90 15 0.418 13.036866742793295 6.843792048957862 2.5008291702588714 0 1 1
4365 291 15 0.418 4.652275993229734 3.306776895438014 0.725227424267252 1 0 1
1168 78 13 0.06 10.168221297185235 8.248280817448462 2.387084105770477 0 0 0
617 42 2 -0.18 11.529919104430276 6.663878343921662 8.691404703772571 0 0 1
3189 213 9 0.06 9.080112237026768 2.7491391372704643 1.4695578018050879 1 1 0
1163 78 8 0.06 9.641878424994275 5.440657296849174 2.130926744716269 0 0 0
1164 78 9 0.06 8.920632378322534 7.251915540554808 5.745563161889774 0 0 0
628 42 13 0.06 11.934908005353979 3.8589243399160993 9.44901172000678 0 0 1
1160 78 5 -0.6830000000000001 11.477130117160831 6.1996762220271595 3.7975742177225573 0 0 0
3195 213 15 0.418 11.121656379462035 3.1832734325764975 2.181826700980423 1 1 0
1156 78 1 0.265 10.150516312681193 6.679108284549784 3.910367854293414 0 0 0
4035 269 15 0.418 2.200112271890694 7.638223530066924 9.111636760711063 0 1 0
4326 289 6 0.06 6.424111929668413 9.009683461358158 0.9199664296647728 1 1 1
429 29 9 0.06 9.397457123182246 10.311074835538005 6.33436569708825 0 1 -2
2276 152 11 0.06 12.457527660563931 9.665189343823375 5.831689789837471 0 0 0
1166 78 11 0.06 9.571743018040664 5.5566666037229036 5.796519256340533 0 0 0
3856 258 1 0.265 4.415746274049756 2.2113462361980476 3.176441412471383 1 0 1
484 33 4 -0.18 8.286100700433092 1.723033489599406 8.886734616905493 0 1 0
1346 90 11 0.06 12.637932666528055 8.934748740302165 1.685981561291973 0 1 1
621 42 6 0.06 10.787874212020213 7.3813363471503655 8.370454184502382 0 0 1
2275 152 10 0.06 12.637230015993973 8.36717692275764 6.9972767889702014 0 0 0
3185 213 5 -0.6830000000000001 10.980432876453813 3.0489127118122834 3.080823366696833 1 1 0
3191 213 11 0.06 8.265517294546264 1.4781398282569107 2.2044228923687568 1 1 0
1170 78 15 0.418 11.464563181944047 5.232836938114863 3.9154020064045727 0 0 0
620 42 5 -0.6830000000000001 9.685013927286837 5.1877765219267635 8.443717964473061 0 0 1
1158 78 3 -0.18 9.79490098470884 6.602231321905028 5.418017374264201 0 0 0
622 42 7 0.06 12.061444575824446 6.274542853001464 7.818180238912623 0 0 1
1157 78 2 -0.18 9.184527317393433 5.792622773428503 3.0891297430954174 0 0 0
2268 152 3 -0.18 13.128302504206893 9.253750754000514 6.567213643938163 0 0 0
630 42 15 0.418 8.872202717457078 4.886394688276594 8.797393458641277 0 0 1
3017 202 2 -0.18 1.4539341969944004 2.9189457084691357 6.033576671043801 1 0 1
2169 145 9 0.06 6.334008426965051 9.800340859705925 3.443444649426573 1 1 0
3857 258 2 -0.18 3.02018896482099 1.6719967907745303 2.6679202947037366 1 0 1
3182 213 2 -0.18 9.941501074540737 1.6700044911903604 4.727826271201876 1 1 0
3866 258 11 0.06 5.873560398142964 1.5760584789639265 4.486734331931791 1 0 1
27 2 12 0.06 1.594426980205618 8.874220381328254 4.156238789153958 1 0 0
3495 233 15 0.418 12.288904205134271 3.392208571794056 0.6126973612013329 1 1 -1
3186 213 6 0.06 10.837523120843871 1.4472765544811532 5.285081163676546 1 1 0
3023 202 8 0.06 1.6489391529406907 3.517736784881946 5.157845967948492 1 0 1
1344 90 9 0.06 13.55074151814428 9.565433051635264 0.3375119596645235 0 1 1
449 30 14 0.06 1.7133882399060996 6.295723830215582 3.1029299987053642 0 1 0
3870 258 15 0.418 5.385140004416306 1.2964636253320319 1.8098773689964835 1 0 1
3905 261 5 -0.6830000000000001 5.59910055125702 5.913239256657431 17.78060806807652 1 0 0
3915 261 15 0.418 4.801874524555233 5.994863770364275 17.193247932134973 1 0 0
3200 214 5 -0.6830000000000001 3.3442140445400987 6.430580154811073 16.03521659339405 0 0 -1
3196 214 1 0.265 2.4743490051358723 7.399255082501136 16.46375964878722 0 0 -1
3210 214 15 0.418 3.1205189523876227 6.1049195960347795 15.201826020270426 0 0 -1
1248 84 3 -0.18 2.8740618590093723 3.3525895787276077 12.802320109166793 0 0 0
4285 286 10 0.06 7.379401376971815 1.2099631399223485 12.539522500785823 0 1 1
1257 84 12 0.06 2.172241097464762 3.737228415309886 16.136360821062624 0 0 0
1255 84 10 0.06 3.9306222970637887 3.5926524510858684 13.049059427150738 0 0 0
629 42 14 0.06 10.538890146473408 3.899136191098842 10.614104292204306 0 0 1
1249 84 4 -0.18 2.741665918659545 3.5005256130906317 15.298419478018044 0 0 0
1258 84 13 0.06 3.714561765732296 3.984990803123759 15.374160823357824 0 0 0
4282 286 7 0.06 6.061731888705684 3.798646802391422 12.695521427766597 0 1 1
4021 269 1 0.265 3.247250787662415 7.893362181124615 10.748335251171452 0 1 0
4281 286 6 0.06 6.9308591659872185 4.9380050797436486 13.724788987139185 0 1 1
3198 214 3 -0.18 3.1518556309652084 8.24702153655419 17.582040234252478 0 0 -1
3208 214 13 0.06 1.6165525673638408 9.048445665011068 15.38928602837246 0 0 -1
4289 286 14 0.06 5.794021471231694 2.095497872812093 14.64652852465493 0 1 1
4277 286 2 -0.18 7.034437513135217 4.042468123499951 13.132493637437808 0 1 1
3205 214 10 0.06 2.569886908859137 9.113289739822056 17.719155800583497 0 0 -1
4026 269 6 0.06 3.9500599077298593 5.830203595018906 11.459515195958495 0 1 0
3907 261 7 0.06 7.378013471558888 3.8587173378838755 18.26367577224176 1 0 0
3912 261 12 0.06 5.225804003538973 3.1815070421718135 17.578856311553036 1 0 0
4028 269 8 0.06 4.522842523236216 7.19042775510453 12.305825945092053 0 1 0
1259 84 14 0.06 2.881827906003418 2.428219334384435 15.42919774595357 0 0 0
2304 154 9 0.06 5.672514962389481 7.486176487053207 15.168580119257484 0 -1 1
2298 154 3 -0.18 6.597864240894353 7.766734753837723 14.669251255582191 0 -1 1
2310 154 15 0.418 7.167515983402286 6.473341166306919 16.785934099253822 0 -1 1
3207 214 12 0.06 3.2581732688394065 8.737090457548739 14.93527898722285 0 0 -1
4758 318 3 -0.18 8.699087006506822 10.107772380623746 11.118484575867052 1 0 1
4033 269 13 0.06 3.6306278691687246 9.709407380413174 11.795350318202644 0 1 0
4025 269 5 -0.6830000000000001 2.1377391405953765 7.373673049817274 10.048010495379808 0 1 0
2305 154 10 0.06 6.707747444827012 7.134651342687073 13.836227767275806 0 -1 1
1246 84 1 0.265 1.9813302698576236 3.7354824959016835 13.9915289096782 0 0 0
4027 269 7 0.06 2.9080833330242752 6.702858700260176 12.602019876145588 0 1 0
4024 269 4 -0.18 2.814071619156361 9.241627963471899 11.351776416910672 0 1 0
4034 269 14 0.06 1.952564975377285 9.142356067687949 11.986143621157119 0 1 0
1254 84 9 0.06 2.880432273707696 2.269994827985271 12.63958336452056 0 0 0
3206 214 11 0.06 4.121852515414455 8.677260082447795 17.512338826425033 0 0 -1
4022 269 2 -0.18 3.6917340842454966 6.829169637075632 11.788180885098386 0 1 0
3204 214 9 0.06 3.0798328969512827 7.689152708028276 18.484903771555995 0 0 -1
4029 269 9 0.06 5.24606385589124 8.624054904463076 10.498726320412558 0 1 0
1256 84 11 0.06 2.6397776934435093 3.87894194600835 11.870753229739153 0 0 0
4766 318 11 0.06 9.020731750000536 10.18316719248688 10.067141866977622 1 0 1
4287 286 12 0.06 6.657762715408377 3.092286822267624 15.65016796428665 0 1 1
2300 154 5 -0.6830000000000001 7.875486075718548 6.491083817514639 16.180034782329322 0 -1 1
4279 286 4 -0.18 6.85650151618556 2.378453842844573 14.91386034026759 0 1 1
4288 286 13 0.06 7.302039534600246 1.5018039573605524 15.462848514287405 0 1 1
4023 269 3 -0.18 4.458279991951511 8.226539509372786 9.852953501317225 0 1 0
3901 261 1 0.265 5.4273135625474165 4.990068711737877 18.736508201281644 1 0 0
4764 318 9 0.06 7.72847084075196 9.573331051433895 11.022795631880284 1 0 1
3913 261 13 0.06 3.6557216926871856 3.8651219473738734 17.912771250418622 1 0 0
499 34 4 -0.18 13.291177470173043 9.502523180648854 15.393863588259569 0 1 0
618 42 3 -0.18 9.647474748652026 6.411952576030553 10.421448850283696 0 0 1
2493 167 3 -0.18 1.715878264244491 1.4512427078350967 18.54530535979288 0 1 0
2471 165 11 0.06 12.483170678671714 10.061948173732006 11.322109699917952 0 1 0
4283 286 8 0.06 7.623960446900693 4.430643934423582 12.261208702387348 0 1 1
507 34 12 0.06 12.264990028875696 9.545794605827073 15.062021539077477 0 1 0
2306 154 11 0.06 6.270888015779278 8.72791028436707 14.198660503085403 0 -1 1
1250 84 5 -0.6830000000000001 1.6335057160662763 5.087196462175244 13.914230813098536 0 0 0
498 34 3 -0.18 12.603327123909002 9.838548517218582 17.826354390512094 0 1 0
3512 235 2 -0.18 12.097682205270376 2.264156892394993 12.960487849428661 1 1 1
2309 154 14 0.06 8.807248522391816 8.596710990550466 17.2673578237515 0 -1 1
4032 269 12 0.06 2.5423915212426484 9.984731964529258 10.542624549310478 0 1 0
497 34 2 -0.18 13.265420703673454 7.517018615764514 16.87890127234845 0 1 0
626 42 11 0.06 8.945103144335768 5.739691113747793 10.933379527371173 0 0 1
2307 154 12 0.06 7.17105931997629 8.461256261159466 17.422642098090737 0 -1 1
2501 167 11 0.06 2.668054478212281 1.4842796844395174 17.982528250318865 0 1 0
2301 154 6 0.06 9.895858089293604 8.055986976621321 15.173877049956996 0 -1 1
4290 286 15 0.418 8.528337267264039 4.196397911908817 14.988954543785184 0 1 1
624 42 9 0.06 9.075251991800226 7.234556630527925 9.938945340511733 0 0 1
2308 154 13 0.06 7.901386779784291 9.751318420841304 16.357362673090687 0 -1 1
501 34 6 0.06 12.206445696023957 7.33003481023182 16.712030964212254 0 1 0
4278 286 3 -0.18 8.217024012253681 1.8433421286602139 12.872648132266264 0 1 1
4276 286 1 0.265 7.758408915111623 2.8920906471671 13.852020221322446 0 1 1
3525 235 15 0.418 10.869692380165587 2.7026210781311644 14.884174252568819 1 1 1
2297 154 2 -0.18 9.080060305590804 7.803476259164993 14.623278133577216 0 -1 1
3521 235 11 0.06 13.206380612649188 4.841668058047436 13.04560241080638 1 1 1
2302 154 7 0.06 8.905696811668037 8.511083014476466 13.881237703175255 0 -1 1
493 33 13 0.06 8.564999253268759 1.8287463679882134 9.90749703478179 0 1 0
3518 235 8 0.06 12.833514310465109 2.4885828047145475 12.173608841343311 1 1 1
625 42 10 0.06 10.271072270368778 6.857678952233988 11.190608898342488 0 0 1
2299 154 4 -0.18 7.9054515457264 8.751484072960821 16.692124942460364 0 -1 1
2296 154 1 0.265 7.861922777126443 7.730953558876308 15.56001808892143 0 -1 1
3511 235 1 0.265 12.619391109212494 3.079747484321861 14.189677200271015 1 1 1
4765 318 10 0.06 9.471358748276481 9.547255806806811 11.663140107131296 1 0 1
502 34 7 0.06 13.53718517660826 7.02532842244645 17.82288965931482 0 1 0
3519 235 9 0.06 13.272728940281418 5.129725306299213 14.741263347895696 1 1 1
3975 265 15 0.418 12.241936073236143 2.024822015076274 16.791648141860083 1 0 0
2303 154 8 0.06 9.312893527978865 6.815867859436886 14.188420502023689 0 -1 1
3515 235 5 -0.6830000000000001 11.764789441306444 2.797202555179679 15.234111837669987 1 1 1
3513 235 3 -0.18 12.735625545601074 4.5875745109609865 13.938432121754914 1 1 1
3965 265 5 -0.6830000000000001 12.525121109321073 1.4212399495681005 17.466504886826215 1 0 0
3968 265 8 0.06 10.682828735417218 2.923891450667268 18.592820078856175 1 0 0
4280 286 5 -0.6830000000000001 8.853538686866823 3.5103287006150232 14.451267478052463 0 1 1
3209 214 14 0.06 1.929016062225332 7.842825356995307 14.26275431227745 0 0 -1
3516 235 6 0.06 11.076240753663637 2.549626123861628 12.637051514324892 1 1 1
3520 235 10 0.06 11.733792736505398 5.045433501152765 14.037695554172508 1 1 1
3517 235 7 0.06 12.021362316263657 1.1955108813397382 13.205520029511401 1 1 1
496 34 1 0.265 13.483068566723581 9.009767681164615 16.83587596807614 0 1 0
505 34 10 0.06 11.56565038023053 9.502915366839154 17.791457621148282 0 1 0
627 42 12 0.06 11.971549337085458 4.9698536433246385 10.953685714211623 0 0 1
487 33 7 0.06 6.29714265593179 1.3968945448061882 10.474865668568556 0 1 0
2463 165 3 -0.18 13.468663887923046 10.18510546581281 11.804778769823427 0 1 0
4284 286 9 0.06 8.72188568159746 2.1552910896116457 12.017565098673927 0 1 1
3199 214 4 -0.18 2.307479257237968 8.277386087228813 15.182863377948726 0 0 -1
3904 261 4 -0.18 4.654311053818429 3.711662133581839 18.353813557323633 1 0 0
619 42 4 -0.18 11.32454897119289 4.552872405453957 10.13416611828448 0 0 1
504 34 9 0.06 13.044078128391284 9.649304129383331 18.801133796846965 0 1 0
2470 165 10 0.06 13.624756503169003 9.309162442330221 12.444954936475241 0 1 0
4006 268 1 0.265 3.326333931030945 5.555801600766994 24.74872870457639 0 0 -1
4009 268 4 -0.18 3.3627802014352617 5.7217498734724055 23.261130330680075 0 0 -1
4008 268 3 -0.18 4.419330031234679 4.4987943443273535 25.226502064828985 0 0 -1
4014 268 9 0.06 5.483617058506597 4.6423287298602345 24.93582373794457 0 0 -1
4007 268 2 -0.18 3.417210665491506 6.905654586869253 25.421850499393678 0 0 -1
4011 268 6 0.06 3.6436006215667747 6.894830074456664 26.448264094680795 0 0 -1
4017 268 12 0.06 4.12717566256747 6.371723222949959 22.977930434827982 0 0 -1
4013 268 8 0.06 4.198776301411403 7.52512558786668 24.946742115416853 0 0 -1
4016 268 11 0.06 4.319370644772878 4.223877549471368 26.27953753885007 0 0 -1
4015 268 10 0.06 4.117444952304701 3.532063115909877 24.683002780163143 0 0 -1
3908 261 8 0.06 6.772666530443023 3.792183386528832 19.970468119623607 1 0 0
4018 268 13 0.06 2.453371640288812 6.178049626902452 22.993726305622275 0 0 -1
4019 268 14 0.06 3.40688972234389 4.720305374880192 22.753151251596943 0 0 -1
3345 223 15 0.418 10.487057146774186 1.4694181259195276 24.812132191622972 0 0 0
3758 251 8 0.06 2.337887122525515 2.097989860125654 25.723038104736425 0 0 0
4010 268 5 -0.6830000000000001 2.0348881316274943 4.970397704402917 25.025594636415065 0 0 -1
2114 141 14 0.06 9.55702491735666 6.009786434341441 25.846876726049015 0 1 0
2200 147 10 0.06 8.944035621761497 3.1237758781835483 27.86660055567113 1 1 0
3909 261 9 0.06 4.8649767274000535 5.108747758184482 20.752158360009698 1 0 0
1244 83 14 0.06 12.091701936359755 9.935864997477612 24.371131363862414 0 0 0
1789 120 4 -0.18 7.0662771320510736 9.68225218477468 23.956336737018134 0 0 -1
1791 120 6 0.06 9.978260637422466 10.470277853050217 21.95756186475892 0 0 -1
1798 120 13 0.06 6.379865559222493 10.222170282236561 23.295298527228237 0 0 -1
1797 120 12 0.06 6.624897466832788 8.821113206283254 24.357208139409085 0 0 -1
4012 268 7 0.06 2.5320177988374284 7.608613172368373 25.275631546218563 0 0 -1
1741 117 1 0.265 12.253435088885267 6.812655754509376 22.09412937635847 -1 1 0
3903 261 3 -0.18 4.6779216246166975 5.640163222324055 19.86088280221402 1 0 0
3911 261 11 0.06 4.898195021905129 6.68860090448295 20.158274043756357 1 0 0
2191 147 1 0.265 7.348294638897712 1.8274976230256357 27.988753684243665 1 1 0
1788 120 3 -0.18 7.990884986278364 8.367611052433233 22.01271199096577 0 0 -1
1795 120 10 0.06 7.088463557847467 8.59126884977469 21.412499122130253 0 0 -1
864 58 9 0.06 3.9571859047793665 10.102788534623471 26.03394708974083 0 -1 -1
1245 83 15 0.418 10.362558428853305 8.474915370155642 25.441265085114484 0 0 0
2197 147 7 0.06 5.4120133333497416 2.543627328589423 27.58569570546886 1 1 0
2106 141 6 0.06 13.269416625874044 3.9974658781879473 26.734754681750516 0 1 0
3910 261 10 0.06 3.576125557563697 5.61378572001278 19.71513832017409 1 0 0
2196 147 6 0.06 6.623904777737984 3.765168651126054 28.038192447521794 1 1 0
3757 251 7 0.06 2.851831872080134 1.7045216972303399 27.392423865112566 0 0 0
4020 268 15 0.418 1.3847143905712853 5.601064194821443 24.70695007039889 0 0 -1
5035 336 10 0.06 7.022380248231326 7.024581371295886 27.2904109700197 1 0 0
1242 83 12 0.06 13.090759862042841 8.956879150697791 25.301780323817614 0 0 0
3752 251 2 -0.18 1.9963808684456499 1.6748863709164539 26.67951982250065 0 0 0
2774 185 14 0.06 3.802757970577354 1.4075410402542938 21.843998408902536 0 1 0
3962 265 2 -0.18 10.80767222634866 2.072690310014938 19.10150037976553 1 0 0
4120 275 10 0.06 13.116059294289 1.5242279730663264 22.23177050512886 0 1 0
2113 141 13 0.06 10.38534917006284 5.165518458133997 24.620238564424593 0 1 0
2112 141 12 0.06 9.531615752084448 4.304858558453052 25.853766802485406 0 1 0
1796 120 11 0.06 7.898609144032471 7.377086299194618 22.468300464214554 0 0 -1
1231 83 1 0.265 11.463917333977758 9.861077380489029 26.450238148156835 0 0 0
1744 117 4 -0.18 11.915065769831203 7.839263498718909 21.008300193394877 -1 1 0
3331 223 1 0.265 9.343448654536273 1.4722441299266675 23.208226209468798 0 0 0
1750 117 10 0.06 12.76232515936629 5.052564962689357 20.825681198680336 -1 1 0
2192 147 2 -0.18 6.451039722079915 2.8987703918175463 27.479175913699404 1 1 0
1790 120 5 -0.6830000000000001 9.218860051629196 8.779387546058121 23.99231919988027 0 0 -1
2108 141 8 0.06 11.648352684863132 3.1544646708304365 26.470053262852204 0 1 0
2201 147 11 0.06 8.805980254886327 1.9737634183477453 26.45114569553664 1 1 0
2103 141 3 -0.18 11.270249580023917 5.552953374540373 27.857884520852668 0 1 0
1753 117 13 0.06 10.86368452622435 7.684092118639893 20.663413560499492 -1 1 0
3914 261 14 0.06 4.575182187199233 3.0302091870409016 19.197794874966156 1 0 0
1235 83 5 -0.6830000000000001 10.773573696284796 8.628308422205457 26.3296246092077 0 0 0
1794 120 9 0.06 8.743801041829883 8.377726012478934 21.219879069343936 0 0 -1
2193 147 3 -0.18 8.735453328397886 2.1066964124822305 27.554224299352235 1 1 0
2107 141 7 0.06 12.54795698103193 3.830509737670779 25.133515461712168 0 1 0
3339 223 9 0.06 8.731478268995946 2.441923126303659 21.32979612442681 0 0 0
2198 147 8 0.06 6.537520573389069 2.978790675799779 26.358434121528965 1 1 0
1240 83 10 0.06 12.838871388293754 8.87310897270483 27.74365918739227 0 0 0
5033 336 8 0.06 7.614638935598506 9.528859344506742 27.319126468077854 1 0 0
1751 117 11 0.06 11.046253884740974 5.2075516320429855 21.083011330867848 -1 1 0
3902 261 2 -0.18 6.875353870106644 4.458709644744529 19.082367913079416 1 0 0
3906 261 6 0.06 7.667961579125951 5.190936319176778 19.37723091501831 1 0 0
1749 117 9 0.06 12.149976409341278 4.485901004327751 22.31247243634396 -1 1 0
3341 223 11 0.06 8.888631665458027 3.546821808458524 22.648603220220696 0 0 0
2105 141 5 -0.6830000000000001 12.33645848255482 6.342950489751025 25.91647763229588 0 1 0
1234 83 4 -0.18 12.512959191827308 9.867778903454852 25.275060224810492 0 0 0
4631 309 11 0.06 1.5325131408557056 7.913098962654567 21.429505309715356 1 0 0
1743 117 3 -0.18 12.007705158795217 5.316827393534497 21.582655526570413 -1 1 0
4119 275 9 0.06 13.026054803860577 1.9866506219174282 23.935564528778546 0 1 0
2102 141 2 -0.18 12.290321832223727 3.976363918341988 26.212714196490243 0 1 0
1755 117 15 0.418 12.055679733400234 6.8280507833863116 24.051858046399246 -1 1 0
2110 141 10 0.06 10.86812655062806 6.458389649446298 27.896741311322128 0 1 0
3340 223 10 0.06 10.374468338344954 2.9520264496601083 21.945905206594666 0 0 0
2104 141 4 -0.18 10.169330126935694 5.136155260007291 25.62003908364917 0 1 0
1800 120 15 0.418 9.718314141591744 8.163634034213604 23.463525286347522 0 0 -1
1786 120 1 0.265 8.288250336590902 9.36988726692833 23.127650318019054 0 0 -1
2115 141 15 0.418 11.829340102869565 7.142699420938477 26.06065784030942 0 1 0
2101 141 1 0.265 11.460615489886974 5.276300980378109 26.382450666361564 0 1 0
1754 117 14 0.06 12.542921723927176 7.64824206403981 20.119481939589814 -1 1 0
1745 117 5 -0.6830000000000001 11.534239933228791 7.108776853769617 23.294077353713515 -1 1 0
1752 117 12 0.06 11.949436538054035 8.87121546500314 21.139242513876187 -1 1 0
3333 223 3 -0.18 9.305100493014272 2.637905825262918 22.236184792218978 0 0 0
4948 330 13 0.06 5.815822808793478 10.1548025580034 19.264116863974582 0 0 1
3967 265 7 0.06 9.779343095045027 1.799597211843259 19.487160984241378 1 0 0
3337 223 7 0.06 7.662678922157502 2.1276354224649525 24.460932401295516 0 0 0
3966 265 6 0.06 11.518979515430415 2.243872906067879 19.93908277317175 1 0 0
3332 223 2 -0.18 7.952336524333179 1.2988259073794923 23.837294300002565 0 0 0
1233 83 3 -0.18 12.147363042926685 9.683645881134833 27.76522063430831 0 0 0
2499 167 9 0.06 1.8107059204897369 1.7099037108302921 19.610633943868237 0 1 0
3335 223 5 -0.6830000000000001 10.295831405401266 2.0406008497358026 24.141201338948548 0 0 0
1799 120 14 0.06 7.173719365698402 10.394249046785554 24.793277528904735 0 0 -1
3143 210 8 0.06 1.81494099631676 6.396908071337639 28.039160084029373 2 0 0
2199 147 9 0.06 9.517260191576352 1.573328550266276 28.074195945388272 1 1 0
3765 251 15 0.418 1.6026271660426337 4.053482417073653 26.65295119991745 0 0 0
5040 336 15 0.418 8.979618657087938 7.698480343087871 28.01732412139773 1 0 0
2157 144 12 0.06 1.375719130093301 3.6671881305377245 20.860960441053983 1 1 -1
5036 336 11 0.06 5.586836262514724 7.765896183538306 28.028645848491237 1 0 0
4351 291 1 0.265 5.317415873399327 4.621648910513506 36.56209382840146 1 0 0
4352 291 2 -0.18 4.5696290561082815 5.365039027527575 35.43966918194654 1 0 0
3147 210 12 0.06 3.7145643066698564 4.753008574929585 30.87961378865928 2 0 0
3139 210 4 -0.18 3.615349306299662 5.499645362349941 30.083402091993534 2 0 0
4358 291 8 0.06 5.228759905560311 6.201593846334766 35.103814994068316 1 0 0
4357 291 7 0.06 4.368297741705076 4.827003450511522 34.55561583623246 1 0 0
4356 291 6 0.06 3.6283318762999786 5.806688503260611 35.8122078721142 1 0 0
129 9 9 0.06 11.621974823344992 7.315566588175058 32.41188244901767 0 0 -2
2438 163 8 0.06 6.920328553814713 5.719223804428262 31.926494561536593 1 0 -1
3149 210 14 0.06 3.7808472639410904 5.013962630778083 29.144284401726892 2 0 0
3484 233 4 -0.18 12.547826500698683 3.6771469317307064 34.90480010982722 1 1 -2
4355 291 5 -0.6830000000000001 4.366018307158205 3.7596154551117973 37.04372443977296 1 0 0
1299 87 9 0.06 2.847501467210165 9.3547288144331 33.23611660110059 1 0 -1
4354 291 4 -0.18 6.395011782089729 3.7557822083131356 36.057600073849585 1 0 0
2897 194 2 -0.18 1.3732003183027734 2.8339252944184015 33.94947348818938 1 2 0
2109 141 9 0.06 10.400259312463866 5.021595122474661 28.329175089203687 0 1 0
3493 233 13 0.06 12.624491578523777 3.170707644371535 33.90554638939325 1 1 -2
3148 210 13 0.06 4.434919180493235 6.19523879325918 30.153039901403403 2 0 0
3136 210 1 0.265 2.2479980720077783 6.126810831703245 30.140979142151906 2 0 0
3141 210 6 0.06 2.6897393070436726 7.801010616505148 28.884069189210926 2 0 0
1297 87 7 0.06 1.86347941093842 7.290695847039108 35.93828837884362 1 0 -1
3497 234 2 -0.18 4.0896470746546685 1.8295588157411322 30.86866133974225 1 1 0
3137 210 2 -0.18 1.9038568789725359 6.995097570625867 28.945730179563704 2 0 0
3145 210 10 0.06 2.390712793339226 6.331382849923637 32.258701943142256 2 0 0
1303 87 13 0.06 4.379341234290869 9.957629005422808 36.50407464490364 1 0 -1
1301 87 11 0.06 4.394844649511681 9.367528102787013 33.98019040760249 1 0 -1
5031 336 6 0.06 8.364864717937087 10.16490204794277 28.77905177345703 1 0 0
1304 87 14 0.06 4.379655429668881 8.33160233189416 36.53683612034827 1 0 -1
1300 87 10 0.06 3.380856148043961 7.847797978471184 33.78706025634119 1 0 -1
3140 210 5 -0.6830000000000001 1.4135038890249687 5.001065597596845 30.238494133779437 2 0 0
1293 87 3 -0.18 3.420010422563416 8.936934669340985 34.04942793993868 1 0 -1
4332 289 12 0.06 6.832323820536704 7.930253266962477 35.744325318685014 1 1 0
4363 291 13 0.06 5.969261075717387 3.0664604568048848 35.33012794741737 1 0 0
3508 234 13 0.06 5.221487307844426 2.6114594790677454 33.08234666551921 1 1 0
1294 87 4 -0.18 3.7044515606698853 9.146125620624627 36.53055251506726 1 0 -1