LAMMPS data file via write_data, version 29 Aug 2024, timestep = 1000000, units = real

5000 atoms
5 atom types
4000 bonds
4 bond types
3000 angles
3 angle types
2000 dihedrals
2 dihedral types

-0.2868287462084709 45.28682874620853 xlo xhi
-0.2868287462084709 45.28682874620853 ylo yhi
-0.2868287462084709 45.28682874620853 zlo zhi

Masses

1 32.06
2 12.011
3 12.011
4 1.008
5 1.008

Pair Coeffs # lj/cut/coul/long

1 0.425 3.6
2 0.066 3.3
3 0.066 3.3
4 0 0
5 0.03 2.5

Bond Coeffs # harmonic

1 236.29 1.655
2 1150 1.21
3 274 1.336
4 420 1.08

Angle Coeffs # harmonic

1 110.47 156
2 70.17 103.48
3 112 180

Dihedral Coeffs # opls

1 0 1.1 0 0
2 0 0 0 0

Atoms # full

1628 326 3 -0.1647 7.772306210796982 -0.007582790372032966 0.9560755690671361 0 0 -1
1243 249 3 -0.1647 4.400915682442019 1.2465687599054438 2.7491880194511404 -1 2 1
1546 310 1 -0.0184 3.477729229727613 2.6480461307768204 6.59470791352823 -2 -3 3
1549 310 4 0.1634 3.390506031253135 1.8040735918392161 5.53830680109654 -2 -3 3
1456 292 1 -0.0184 6.762425914586509 0.14615084720945315 8.96399617045284 -1 1 2
3291 659 1 -0.0184 9.267602996281095 3.4549736412917977 8.697301792647934 -3 0 3
1547 310 2 -0.2406 1.9774358396961977 2.3693063876503464 7.323476466569719 -2 -3 3
3292 659 2 -0.2406 8.200721304546802 3.0552602685718226 10.017614153623292 -3 0 3
1860 372 5 0.2603 9.870541517069148 4.118839958815717 1.5331274597217213 3 3 -1
1626 326 1 -0.0184 7.326444890936934 2.5620896283303645 0.03627900561093572 0 0 -1
2062 413 2 -0.2406 -0.14922362551471133 9.178330834626015 2.815910037151895 -2 1 1
1337 268 2 -0.2406 10.768049785046472 3.937664192021975 4.597577431162559 -1 0 0
1244 249 4 0.1634 3.896926909658995 4.300889902770251 2.360328599909488 -1 2 1
1716 344 1 -0.0184 0.3344222058095353 5.007551464718177 1.0459790497821242 1 -5 -1
4568 914 3 -0.1647 9.058977947099695 0.9248846766781922 4.643834780140595 -2 -1 1
1336 268 1 -0.0184 9.600214217113422 4.838166767946952 5.3242785571863305 -1 0 0
2355 471 5 0.2603 10.365520240339313 1.2997691755758427 0.6669047400862187 0 -2 0
269 54 4 0.1634 2.657983187738556 8.448237397899799 1.0284120247148687 1 -1 0
1629 326 4 0.1634 6.651839562501491 3.0184360866188036 1.0987691244319024 0 0 -1
1241 249 1 -0.0184 2.986620949608283 3.654306689509733 3.057471111910496 -1 2 1
1887 378 2 -0.2406 4.018456760637226 5.963183714910193 5.588111477359329 -3 -1 -3
1886 378 1 -0.0184 5.380303863825968 5.539522749904326 4.850579636989989 -3 -1 -3
4570 914 5 0.2603 9.854973123808191 1.5705340694027825 4.145049635299695 -2 -1 1
4567 914 2 -0.2406 8.160746101788256 0.3268786645791151 5.1744258541253725 -2 -1 1
1888 378 3 -0.1647 3.2490969363450466 6.672583656412438 6.16623454863629 -3 -1 -3
1242 249 2 -0.2406 3.5298845357936486 2.110879956818478 2.750586019436765 -1 2 1
1889 378 4 0.1634 5.787735554996142 6.594950493078163 4.103121032147254 -3 -1 -3
2163 433 3 -0.1647 1.1668587427609745 0.10472645961626847 1.4184582527954024 -2 -1 -1
1548 310 3 -0.1647 1.0178869093199212 2.6277136218210493 7.9858277369450015 -2 -3 3
4063 813 3 -0.1647 0.24401047501446105 5.471697847144709 9.172035164430719 0 -2 -3
4880 976 5 0.2603 5.655123850134715 13.962953034270221 2.2355028236503363 -2 -1 3
1395 279 5 0.2603 -0.2532589464554692 1.9875234889047642 3.0874707127581646 1 -1 1
1550 310 5 0.2603 0.21627747055328184 2.804496004211184 8.609608410960101 -2 -3 3
4877 976 2 -0.2406 6.109111384879123 14.652393864601454 0.13695223348031504 -2 -1 3
4684 937 4 0.1634 0.6500572529377439 12.015856703433059 10.547332001825644 7 2 0
286 58 1 -0.0184 1.9936699384895764 14.829388063884263 2.953721501166757 1 1 -1
4533 907 3 -0.1647 6.0406220789612375 5.622199319128584 10.975832533914176 -3 3 1
2064 413 4 0.1634 1.5227348807348453 10.938164357273193 2.5124647271925915 -2 1 1
4534 907 4 0.1634 3.554780158040347 7.92450596515944 9.781809903087753 -3 3 1
1245 249 5 0.2603 5.173550798992056 0.4693902519265668 2.823173086286879 -1 2 1
1856 372 1 -0.0184 8.10239165060634 7.209597225303908 2.847463657564613 3 3 -1
4065 813 5 0.2603 1.1863883539443334 5.6997040647278014 8.632671140387398 0 -2 -3
270 54 5 0.2603 5.637004775581919 6.034463618608884 -0.07086940337406727 1 -1 0
3644 729 4 0.1634 10.641447334695377 7.397220563134222 1.7692921673083788 -3 1 1
4532 907 2 -0.2406 5.183142344409892 6.442214894546371 10.654352592892389 -3 3 1
1627 326 2 -0.2406 7.63581702838269 0.9727007173890136 0.2517699883299013 0 0 -1
266 54 1 -0.0184 3.299113922655391 8.10430068891614 2.1313351381567407 1 -1 0
2162 433 2 -0.2406 0.19906014912846887 0.7581114542697531 1.0718052054005798 -2 -1 -1
3884 777 4 0.1634 5.879780445508707 13.679849563751358 6.671784687326221 2 1 4
3931 787 1 -0.0184 9.66482508178245 11.834847119046373 7.8331303942339865 -4 -4 6
1339 268 4 0.1634 9.765681454760736 4.502278082162011 6.56796297195309 -1 0 0
1857 372 2 -0.2406 8.644547846478073 5.976743526563969 1.962066910874027 3 3 -1
267 54 2 -0.2406 4.534332242776387 7.16079456409517 1.5596714085876442 1 -1 0
1858 372 3 -0.1647 9.340796739907375 5.024531997089678 1.7733614325111482 3 3 -1
252 51 2 -0.2406 10.54748293446255 7.703129675912714 10.547472466884361 -1 1 -4
2930 586 5 0.2603 3.096535218953989 3.818204970422653 10.038716441776254 0 1 -1
1890 378 5 0.2603 2.5362802843534493 7.285517615624727 6.707897906689797 -3 -1 -3
2259 452 4 0.1634 0.9256806778669746 10.349725426321339 6.844634227038566 1 0 -2
4878 976 3 -0.1647 5.897381223323178 14.30749417045914 1.255521314793211 -2 -1 3
2711 543 1 -0.0184 9.983876464523854 13.126659665179389 0.4841762472966381 0 2 -1
4207 842 2 -0.2406 -0.24788003401667436 8.726361141891674 7.47435619041464 0 0 -1
3294 659 4 0.1634 9.593100650730898 2.212631056604073 8.170336155417344 -3 0 3
4208 842 3 -0.1647 -0.05304496439789505 8.542306936840816 6.298605825681078 0 0 -1
1459 292 4 0.1634 7.023243355236576 0.7473072364521867 10.052522858161824 -1 1 2
2842 569 2 -0.2406 3.8649963376168373 11.976340169429587 1.7916176329686886 0 -2 -2
4682 937 2 -0.2406 1.5238387999674803 13.545726648438528 9.143282540983183 7 2 0
288 58 3 -0.1647 0.4637099111850004 13.817279460938469 5.025343898465428 1 1 -1
2713 543 3 -0.1647 10.380939648417352 10.335964567359206 0.40963798989835876 0 2 -1
3935 787 5 0.2603 6.901916127240481 10.218297766792816 10.091255048070426 -4 -4 6
3883 777 3 -0.1647 7.692190306684638 12.649289522070564 3.937659850110319 2 1 4
1815 363 5 0.2603 4.488632386341508 12.81526202376181 8.975892069148902 0 2 0
2712 543 2 -0.2406 10.422981427697511 11.529733962408727 0.6141643219291281 0 2 -1
3105 621 5 0.2603 10.800691561799436 0.2435317845912558 7.15918434275739 1 -1 1
2061 413 1 -0.0184 0.24614381281623066 10.840955019097642 2.960156475388788 -2 1 1
2843 569 3 -0.1647 4.276971381784346 11.734603004409943 2.932830538011652 0 -2 -2
3881 777 1 -0.0184 5.720980469688058 13.97688853935461 5.351351780909024 2 1 4
1859 372 4 0.1634 8.240431246520746 6.486050595950735 4.0017488548041635 3 3 -1
4531 907 1 -0.0184 4.358362510172095 7.845943663554079 10.797419222531863 -3 3 1
1813 363 3 -0.1647 5.43115324111566 13.33298395419208 8.81152513390817 0 2 0
2845 569 5 0.2603 4.572417954583827 11.492483506464717 3.91126700717954 0 -2 -2
3885 777 5 0.2603 8.493103139524349 12.306311592511358 3.3117017858252327 2 1 4
4681 937 1 -0.0184 1.85266205360131 12.25754286677883 10.08090729989297 7 2 0
2715 543 5 0.2603 10.33832790196456 9.278475807497472 0.11274468277606348 0 2 -1
3882 777 2 -0.2406 6.844745335972315 13.029849783087956 4.685429618535339 2 1 4
2761 553 1 -0.0184 8.066524332232055 9.393851417967543 5.537577159550003 3 4 -1
2764 553 4 0.1634 7.667737782459902 10.479293558060458 6.219280036717099 3 4 -1
2762 553 2 -0.2406 7.619634387803004 8.08226883725841 6.423767677175832 3 4 -1
3933 787 3 -0.1647 7.681531504024969 10.511718855242883 9.319664912538174 -4 -4 6
1812 363 2 -0.2406 6.489973811376508 13.880467760983407 8.570486349771695 0 2 0
4683 937 3 -0.1647 0.9674960905341985 14.58535733924765 8.788055883524112 7 2 0
3932 787 2 -0.2406 8.57120240906747 10.807931644222847 8.57505323167122 -4 -4 6
255 51 5 0.2603 10.05917418923042 7.96674020246836 8.283124657156343 -1 1 -4
2256 452 1 -0.0184 1.9272631499044195 11.065229469898751 6.276816710720966 1 0 -2
2257 452 2 -0.2406 3.1546071639821514 10.286006203753198 6.918883357529361 1 0 -2
2260 452 5 0.2603 5.403103132519074 9.820727529258024 7.2151374130216075 1 0 -2
2258 452 3 -0.1647 4.342866292438591 10.014727693297987 7.127797859248775 1 0 -2
2841 569 1 -0.0184 3.596491385194418 11.656151988384654 0.16268395621794296 0 -2 -2
2763 553 3 -0.1647 7.347911008834193 7.47890556835793 7.438911434046014 3 4 -1
2765 553 5 0.2603 6.978001578107154 7.022036903551176 8.357145845456694 3 4 -1
3934 787 4 0.1634 8.781386408167386 12.546742735540043 7.050759776877605 -4 -4 6
287 58 2 -0.2406 0.9315812651556217 14.248299524479926 3.96689414776146 1 1 -1
253 51 3 -0.1647 10.307286166326268 7.85188223352475 9.358592818684732 -1 1 -4
268 54 3 -0.1647 5.130734088263801 6.542940187028608 0.7087836090159375 1 -1 0
290 58 5 0.2603 0.052279775833709574 13.461597824817028 5.959500662994294 1 1 -1
2928 586 3 -0.1647 2.9770630970919503 3.5970973003598647 11.071833939000806 0 1 -1
4210 842 5 0.2603 0.17526735679323974 8.322492387357366 5.280766591650318 0 0 -1
2714 543 4 0.1634 8.889777857669058 13.097311695210617 -0.27955190032253796 0 2 -1
2844 569 4 0.1634 3.319804224920578 12.828345873905226 -0.28344538530696894 0 -2 -2
3540 708 5 0.2603 4.669054179470881 13.673439327803662 11.510508867305004 3 -5 3
2894 579 4 0.1634 1.2926883942503196 4.646391678569407 18.22976205450641 2 3 1
3214 643 4 0.1634 0.33002549817827165 1.3570261473809793 11.94906322409558 0 1 0
2137 428 2 -0.2406 7.012991198761506 4.039809059958668 17.19194008407956 -2 1 1
2136 428 1 -0.0184 7.586440901887062 4.192089919032782 18.760669829906774 -2 1 1
2138 428 3 -0.1647 6.964570857153037 3.534775869183997 16.09523781188544 -2 1 1
672 135 2 -0.2406 5.210283517490347 12.674144056667197 16.83832690548718 -3 0 -2
254 51 4 0.1634 11.086929367304096 8.005750905743987 12.795338422635519 -1 1 -4
2895 579 5 0.2603 4.917213562911434 2.071640378109277 18.034348785502267 2 3 1
2929 586 4 0.1634 2.5455307733044785 1.7304580384965753 13.765002329385522 0 1 -1
2893 579 3 -0.1647 4.076479421428152 2.7409931332205315 17.956681675942146 2 3 1
4009 802 4 0.1634 3.686042104283551 2.64810557440497 22.20206379301884 2 3 4
2892 579 2 -0.2406 3.1375031571748897 3.4513687749638535 17.79967428582084 2 3 1
2094 419 4 0.1634 0.30286093169238093 8.83947706709435 20.11943276425021 -1 1 -1
2465 493 5 0.2603 -0.2619224812125542 6.086310856022704 22.077005968916332 -1 -1 -2
2927 586 2 -0.2406 2.796433061910416 3.326483791529969 12.225398387942981 0 1 -1
3211 643 1 -0.0184 0.39614526199055833 0.1347982169309882 12.484812270269945 0 1 0
2926 586 1 -0.0184 3.1807093259297856 2.9320398613747427 13.780054276544167 0 1 -1
2891 579 1 -0.0184 2.307066568139977 4.835783347328164 17.436428458773026 2 3 1
1655 331 5 0.2603 9.432287821688572 7.132173708542851 15.409446584545 1 3 -4
4512 903 2 -0.2406 9.94498784621671 12.85641685434418 20.69059944216863 0 -2 -3
2139 428 4 0.1634 6.402862949465313 4.5337855710138735 19.37911027501226 -2 1 1
4088 818 3 -0.1647 9.510346064677542 1.3601814312857399 14.086589069716446 3 -3 -1
1653 331 3 -0.1647 10.445341900207685 6.780251872895321 15.710534254868936 1 3 -4
4322 865 2 -0.2406 5.934961210784119 4.807439229997526 21.605961649504575 3 0 -3
4006 802 1 -0.0184 2.669109370673731 1.981887549796911 21.578738268991664 2 3 4
1729 346 4 0.1634 1.1775349685583456 13.76822568625231 16.660486658470237 1 -2 -1
681 137 1 -0.0184 9.42390145854389 8.778195927937604 22.324324028665096 0 -1 -4
4323 865 3 -0.1647 4.948338706639139 5.089111685660223 21.010547134344858 3 0 -3
2140 428 5 0.2603 6.856405481276219 3.118903089520442 15.118188149148155 -2 1 1
887 178 2 -0.2406 7.367622871957886 0.7691379034566204 21.17996193442746 0 -2 0
4922 985 2 -0.2406 10.613393048099203 -0.08933507687629802 17.016043784218954 1 -1 3
4255 851 5 0.2603 2.410141526881771 5.725474256234776 13.038483990187004 0 -1 -2
4086 818 1 -0.0184 9.875532229310474 4.0868726416165755 13.743501071417576 3 -3 -1
2951 591 1 -0.0184 5.838729225484252 -0.028973858060180102 12.728813284852876 1 2 -1
683 137 3 -0.1647 9.467345370828678 7.306712373149802 19.826818838977534 0 -1 -4
4089 818 4 0.1634 9.004782156001612 4.638413293945713 14.638233330112493 3 -3 -1
4524 905 4 0.1634 1.8832620346109308 0.41563028010472314 18.24090208755972 -3 -1 3
4253 851 3 -0.1647 2.3655562012529074 6.797389270174457 13.270422661902881 0 -1 -2
4087 818 2 -0.2406 9.900515023207399 2.466345402999301 14.07448512313463 3 -3 -1
682 137 2 -0.2406 9.235679670038332 7.78282683010945 20.935155576205027 0 -1 -4
671 135 1 -0.0184 4.363406867106161 14.058548184005463 17.241559236612922 -3 0 -2
3976 796 1 -0.0184 5.897503999841962 5.883404074137758 14.604394783641151 0 2 3
4254 851 4 0.1634 3.5117319362975805 9.657287586230881 12.525296179042488 0 -1 -2
324 65 4 0.1634 4.958249334858796 11.072136031790087 22.268148713714766 1 1 1
4325 865 5 0.2603 4.098508701479985 5.361579200218629 20.445897597608457 3 0 -3
3537 708 2 -0.2406 5.272133317101252 11.856255212992236 12.828743234936736 3 -5 3
3212 643 2 -0.2406 1.7866450302525494 0.15065126371288978 13.468672413335353 0 1 0
384 77 4 0.1634 10.407554756163728 10.383337997100103 17.65129900948844 -1 3 2
4514 903 4 0.1634 8.10515560264694 12.794401624742784 19.31798516428852 0 -2 -3
381 77 1 -0.0184 9.22531085767977 10.564991506441666 17.035581993076974 -1 3 2
357 72 2 -0.2406 0.5240015302447113 11.981428337742239 16.811725448709836 2 -1 -1
3978 796 3 -0.1647 7.906479218798603 7.494555602106643 13.560023783526782 0 2 3
2873 575 3 -0.1647 5.102502550178134 6.854074691625567 18.120241170480355 0 5 -2
2872 575 2 -0.2406 5.386410580963587 7.753328422204099 18.890321356150753 0 5 -2
2871 575 1 -0.0184 6.21592091141461 9.047205911581566 19.559218674193893 0 5 -2
2874 575 4 0.1634 5.515871753876603 9.366391864607278 20.653799823626684 0 5 -2
4271 855 1 -0.0184 0.7868532773291701 13.242173769214402 19.915307520133624 0 -1 0
359 72 4 0.1634 2.2601716515712824 10.895759480628023 18.02841936898058 2 -1 -1
869 174 4 0.1634 5.656647329273111 14.161318899577292 19.025204188318014 4 -1 -4
356 72 1 -0.0184 1.9731797364577695 11.262393751201557 16.749601025892552 2 -1 -1
2091 419 1 -0.0184 1.2442011348041042 9.10275906790216 19.241068667727514 -1 1 -1
4511 903 1 -0.0184 8.390599553885249 12.344930054978068 20.497453797113163 0 -2 -3
383 77 3 -0.1647 8.561984180374496 13.377688129329155 16.88442093134988 -1 3 2
382 77 2 -0.2406 9.059655358765449 12.245717260337889 17.02454910014729 -1 3 2
888 178 3 -0.1647 8.529840442532326 0.7249986051014752 20.830091825414293 0 -2 0
4090 818 5 0.2603 9.178311168600697 0.345292946483566 13.97900419071905 3 -3 -1
886 178 1 -0.0184 5.746573824791542 0.21325219082194002 21.18285009864913 0 -2 0
1359 272 4 0.1634 0.6875578961696736 3.6181861534076076 15.783100732073361 1 2 -3
4252 851 2 -0.2406 2.2528035517136153 8.000700690123434 13.492257120529004 0 -1 -2
3539 708 4 0.1634 6.847652456090434 11.970430843561168 14.456983034716963 3 -5 3
3979 796 4 0.1634 5.081749575726722 5.515463572249169 13.612697165253401 0 2 3
3977 796 2 -0.2406 7.141001182968797 6.588429680530128 13.763711700101608 0 2 3
4923 985 3 -0.1647 10.857939268167712 1.0706615799342047 17.22296619967177 1 -1 3
4274 855 4 0.1634 0.7075984243505925 11.851859227390463 19.848679738896404 0 -1 0
2875 575 5 0.2603 4.861263946263522 6.038444747370296 17.447655711374782 0 5 -2
2092 419 2 -0.2406 0.6770238164209076 8.438855449575648 17.90849376817669 -1 1 -1
1416 284 1 -0.0184 10.783895601007789 10.662601526681609 12.918060831946379 1 1 -1
2095 419 5 0.2603 0.7659023030759724 7.709563862713937 15.725598841550912 -1 1 -1
685 137 5 0.2603 9.640488305633454 6.926422434607064 18.82763635944107 0 -1 -4
321 65 1 -0.0184 3.7552911830182394 11.502083303229591 22.03157962297464 1 1 1
3980 796 5 0.2603 8.607138292250989 8.328543861887933 13.308871504594721 0 2 3
675 135 5 0.2603 6.254739479072901 10.689870644249407 17.284553473508073 -3 0 -2
673 135 3 -0.1647 5.792901537449093 11.644623619941918 17.108348996708024 -3 0 -2
385 77 5 0.2603 8.164323648642226 14.369163761327007 16.765802274912957 -1 3 2
3536 708 1 -0.0184 6.34039922973711 10.971968911204568 13.738967760186354 3 -5 3
4272 855 2 -0.2406 0.5528654295763488 13.556237348174626 21.472658692862787 0 -1 0
3295 659 5 0.2603 7.775542449846249 2.149610661153125 12.097705715257218 -3 0 3
3538 708 3 -0.1647 4.94380808344513 12.839015200380596 12.154803615586662 3 -5 3
890 178 5 0.2603 9.599054999352756 0.6854010645859541 20.553494962610202 0 -2 0
4251 851 1 -0.0184 2.6461651755494247 9.618520924313518 13.555516051727446 0 -1 -2
4494 899 4 0.1634 0.7034467078771021 2.834859551989904 19.843174973891333 0 1 -2
2093 419 3 -0.1647 0.7671810374790096 8.096822962786012 16.747337425984878 -1 1 -1
4925 985 5 0.2603 11.095012390288316 2.104729019926163 17.42284435983432 1 -1 3
867 174 2 -0.2406 5.146862591005048 14.759438311351147 21.293410399246845 4 -1 -4
684 137 4 0.1634 8.64486771452417 9.795500653527942 22.057177555436283 0 -1 -4
4324 865 4 0.1634 8.107048283004257 4.576087853096616 22.039000610291243 3 0 -3
2506 502 1 -0.0184 -0.011947372469318762 11.803383004914947 13.200720727686699 0 0 -1
674 135 4 0.1634 3.397742768606764 13.88697406968657 16.378911524928075 -3 0 -2
4535 907 5 0.2603 6.859793210054953 4.914758786312498 11.254490162140932 -3 3 1
3213 643 3 -0.1647 2.7171263901559533 -0.277101687378004 14.152230569228815 0 1 0
3293 659 3 -0.1647 7.978572244656732 2.622650150936352 11.119658409542984 -3 0 3
709 142 4 0.1634 11.036015539002873 3.9995860490793875 21.32664792103853 1 2 1
110 22 5 0.2603 1.115730710674113 3.4019016609832002 29.177363417448063 0 0 5
108 22 3 -0.1647 1.4968623311335798 3.8013200473459046 30.120085226103676 0 0 5
2406 482 1 -0.0184 7.295874390722852 6.949532129313496 25.903054156298097 1 1 -1
784 157 4 0.1634 8.782476216411487 3.0752868048564803 31.067500533906635 -3 1 -1
2147 430 2 -0.2406 5.948382947720329 0.17695465810162864 25.393973052447794 -1 -3 -1
4081 817 1 -0.0184 3.4307857636201735 1.1416672889435482 28.40000488927088 3 -1 -1
107 22 2 -0.2406 1.8407583098148188 4.27527404552783 31.164326459158882 0 0 5
2307 462 2 -0.2406 10.746689369005887 3.6665002484181914 24.35248895988707 1 0 -1
781 157 1 -0.0184 7.62036278278908 2.7902469395373477 30.471214227185396 -3 1 -1
2407 482 2 -0.2406 7.389546870478667 5.849596964641337 27.141669471785196 1 1 -1
1754 351 4 0.1634 4.940568037338553 4.6651964667747725 23.252098679817713 1 2 2
782 157 2 -0.2406 6.543501995898499 3.8732238838901303 30.975508245690726 -3 1 -1
783 157 3 -0.1647 5.697935168188808 4.670570792780606 30.828052884717476 -3 1 -1
785 157 5 0.2603 4.9365565674982 5.3693764149391985 30.70059051646869 -3 1 -1
176 36 1 -0.0184 0.7135090946844724 6.195359396362437 26.40973166918881 -2 0 -4
4421 885 1 -0.0184 9.158442887134155 6.330311156612371 33.786608377861526 1 -2 1
4422 885 2 -0.2406 9.098772239914636 5.763959934989261 32.19724481966236 1 -2 1
4423 885 3 -0.1647 9.363407193181436 5.82395578524642 31.025075976668415 1 -2 1
1861 373 1 -0.0184 10.963830071414659 11.731929365541129 24.117549624339606 0 4 0
4085 817 5 0.2603 0.6880027996359716 2.313863637440685 26.011287642040998 3 -1 -1
2848 570 3 -0.1647 0.06754153670873864 9.71320344533619 28.93649953944758 0 0 6
4084 817 4 0.1634 3.7669287889855623 2.2337335333350663 29.102174378509183 3 -1 -1
4082 817 2 -0.2406 2.5423076357319383 1.7958594701764636 27.32001433001849 3 -1 -1
1751 351 1 -0.0184 3.883619877966166 4.584222361975236 24.126109058795265 1 2 2
370 74 5 0.2603 3.7331749632054647 6.314271639182752 26.942595339513893 -2 0 -1
2146 430 1 -0.0184 5.523774195477857 1.7654862575884116 25.19399222510453 -1 -3 -1
2408 482 3 -0.1647 6.885511238223791 5.021013622921952 27.88730026426499 1 1 -1
3987 798 2 -0.2406 1.5382009825244927 7.499093453516573 31.31998572805398 3 1 -2
4273 855 3 -0.1647 0.7255114859920024 13.343029800996268 22.649642862357208 0 -1 0
2410 482 5 0.2603 6.425389344318062 4.301121661412846 28.502082859793532 1 1 -1
2409 482 4 0.1634 8.470982145807886 7.441797303580779 26.23275314869719 1 1 -1
106 22 1 -0.0184 2.4719483574207026 4.2684456653323934 32.69125415996117 0 0 5
1752 351 2 -0.2406 2.9225336403127 5.9027157214023696 23.706385925319857 1 2 2
4425 885 5 0.2603 9.555452353485256 5.8073493253001365 29.965329351942266 1 -2 1
4083 817 3 -0.1647 1.559799796979649 2.0849329995675143 26.65395721695069 3 -1 -1
2149 430 4 0.1634 4.387584714684377 1.9155180211147718 25.983097617809822 -1 -3 -1
2309 462 4 0.1634 8.58741430293889 2.728542916939049 24.520683165976962 1 0 -1
2081 417 1 -0.0184 2.9460466600165587 14.408509547896836 32.169658386313216 1 -1 4
2308 462 3 -0.1647 10.956313102869363 4.831729058110556 24.10397789442907 1 0 -1
4007 802 2 -0.2406 2.2414088116171778 0.9456591367077001 22.802044842400452 2 3 4
3986 798 1 -0.0184 2.8218941864272424 7.860508271972195 30.34335217091535 3 1 -2
323 65 3 -0.1647 1.5113530261808217 10.355529345662713 23.413023883931867 1 1 1
4008 802 3 -0.1647 2.2872291697533553 0.481111665796494 23.919972140753764 2 3 4
2022 405 2 -0.2406 6.5421703230954025 9.944738289117428 24.107127815900416 3 0 1
1345 269 5 0.2603 6.446903516051601 4.821645790552815 33.726872116299134 1 -1 -2
179 36 4 0.1634 1.7701846929943463 6.5284299671381705 25.68143226564468 -2 0 -4
3073 615 3 -0.1647 2.6113106854929486 0.9241268783438152 31.646528741177505 1 0 0
109 22 4 0.1634 1.9973414848026243 5.3647351851537906 33.213712927302524 0 0 5
4010 802 5 0.2603 2.2970760668639865 0.07149249017654158 24.89564914972274 2 3 4
4464 893 4 0.1634 9.926240353069504 0.7420461902290016 33.53862755070278 3 2 0
3075 615 5 0.2603 1.8111581639053074 1.6522743421943455 31.446499069790036 1 0 0
369 74 4 0.1634 1.602840268097605 9.630004816268906 26.774004243826788 -2 0 -1
1854 371 4 0.1634 2.4426619244008263 13.083975365442974 27.662364016076328 -1 0 3
1185 237 5 0.2603 9.956105842279772 8.37038553746551 30.48799202632706 0 -1 1
2025 405 5 0.2603 6.937051060907751 11.445915378536752 25.760337600036927 3 0 1
2529 506 4 0.1634 6.9039162753609675 11.648453941324973 32.873720589812024 1 0 2
1369 274 4 0.1634 5.647301540534427 13.82686470690046 28.794735587195497 -1 0 0
368 74 3 -0.1647 3.72899588490683 7.329811178196842 27.187732794381958 -2 0 -1
2847 570 2 -0.2406 -0.12948740607699852 9.609226344222003 27.75989509502936 0 0 6
3983 797 3 -0.1647 3.249207977658212 13.119474458547066 25.524404763475683 3 0 0
4275 855 5 0.2603 0.8496005995504208 13.212912795427691 23.727730100406283 0 -1 0
367 74 2 -0.2406 3.5785901233264052 8.510170348851954 27.33159721906943 -2 0 -1
1851 371 1 -0.0184 1.5205299290092118 13.243251150356537 28.62654694693449 -1 0 3
1853 371 3 -0.1647 2.7865739856272724 11.495350517683923 30.398560063562627 -1 0 3
1862 373 2 -0.2406 10.582432085512336 11.416239018340393 25.7323915520701 0 4 0
1367 274 2 -0.2406 7.089573988944684 14.029486963722942 27.0927410942896 -1 0 0
1366 274 1 -0.0184 5.5620234724066995 13.658566936387535 27.508042874502138 -1 0 0
2021 405 1 -0.0184 5.801103204023238 8.65739763464298 23.41333637706412 3 0 1
1865 373 5 0.2603 9.26111286463219 11.187644334451806 27.568694029277 0 4 0
1368 274 3 -0.1647 8.21905809795823 13.818632569879197 26.922947614190182 -1 0 0
3989 798 4 0.1634 2.3759536586994874 8.100130283596304 29.056592221771904 3 1 -2
3990 798 5 0.2603 -0.2093727003177192 7.564966658798378 32.76592534349773 3 1 -2
2528 506 3 -0.1647 7.377435136259055 14.0354003627693 30.848936603708374 1 0 2
1852 371 2 -0.2406 2.0152184470422068 12.154316996113225 29.730151372018057 -1 0 3
1370 274 5 0.2603 9.305361790765572 13.682307652282049 26.84907078722511 -1 0 0
1183 237 3 -0.1647 10.198776226956157 9.434476612673866 30.30312982350657 0 -1 1
1281 257 1 -0.0184 9.012291561171047 10.716526118931503 33.57390332237784 3 2 -2
3988 798 3 -0.1647 0.6114531145366414 7.609593817810628 32.0861148479677 3 1 -2
366 74 1 -0.0184 2.8828174077900828 9.971613236159252 27.038026821352908 -2 0 -1
1779 356 4 0.1634 4.986642403884988 8.82536265972143 28.884507846850436 0 2 -1
1863 373 3 -0.1647 9.905225331064473 11.263824545308063 26.706782326127435 0 4 0
4461 893 1 -0.0184 10.698751905165855 -0.2614681522152878 33.28734243975182 3 2 0
1864 373 4 0.1634 10.520159452502611 12.965748769953604 23.74690377268726 0 4 0
1181 237 1 -0.0184 10.45635869874542 12.323611750985068 30.491407172680454 0 -1 1
2023 405 3 -0.1647 6.763921983859292 10.715360328122717 24.994674755293314 3 0 1
1755 351 5 0.2603 2.453550071206995 7.8856182810174715 22.6887032859105 1 2 2
2215 443 5 0.2603 3.7962723698317795 8.158954551402243 33.437714031900455 2 4 0
1777 356 2 -0.2406 7.028640862572432 8.813509512304131 30.090281191992297 0 2 -1
2526 506 1 -0.0184 6.138125323002798 11.689205845519961 31.739054584412045 1 0 2
325 65 5 0.2603 0.5446842346498082 10.113864268479583 23.739073972680625 1 1 1
1780 356 5 0.2603 7.05325849983681 8.30123243447528 32.32860155074494 0 2 -1
1855 371 5 0.2603 3.5009179226631177 10.848188595577279 30.97027602907291 -1 0 3
2527 506 2 -0.2406 6.640384899534787 13.070892299232924 31.064657752608888 1 0 2
3985 797 5 0.2603 3.9777256415884743 12.307713788370046 25.534180897777368 3 0 0
1778 356 3 -0.1647 7.077339350998443 8.50314166722197 31.270097762694583 0 2 -1
1182 237 2 -0.2406 10.496543305364417 10.6154241343602 30.227276838043412 0 -1 1
1776 356 1 -0.0184 6.257867272189089 9.245067295785585 28.64987285864161 0 2 -1
3982 797 2 -0.2406 2.5172806951223246 14.062160422329004 25.40809068869247 3 0 0
4321 865 1 -0.0184 7.1516907340379925 5.187977450222012 22.59847865798185 3 0 -3
2306 462 1 -0.0184 9.779738579304098 2.267842676459713 24.39593794256648 1 0 -1
3072 615 2 -0.2406 3.442544266511805 0.14365782393641596 31.973921925692835 1 0 0
2779 556 4 0.1634 0.38361813968424086 12.587925222920294 31.588393308138865 -1 -1 0
322 65 2 -0.2406 2.5933435912942215 10.725413758337544 23.0284137066281 1 1 1
2850 570 5 0.2603 0.23727235509696887 9.872934808947797 29.98762160081724 0 0 6
1753 351 3 -0.1647 2.695598631710229 6.9349893164738985 23.148606008752452 1 2 2
1284 257 4 0.1634 8.973146914191386 10.509745035629686 32.19040193910988 3 2 -2
2024 405 4 0.1634 5.870791343353699 7.724970823612113 24.338029220560767 3 0 1
2530 506 5 0.2603 8.033803334338806 14.796736490592133 30.62048027788342 1 0 2
1039 208 4 0.1634 0.11195162976443429 0.405169226227032 22.768652210778274 0 -2 -2
4220 844 5 0.2603 0.1242388589851749 9.878662124717442 33.87595581209826 1 5 -3
3751 751 1 -0.0184 2.612186760536644 5.700081139798388 39.90317612278319 0 0 -2
4864 973 4 0.1634 8.45900300387347 10.6583925756744 41.26335251398771 3 1 4
2614 523 4 0.1634 5.011645454169368 8.242976799482694 45.07388345350779 0 0 -1
3752 751 2 -0.2406 1.252428758534861 4.954792226920582 39.2943968315913 0 0 -2
3753 751 3 -0.1647 0.480360995665733 3.999795739065588 39.18673676735901 0 0 -2
1902 381 2 -0.2406 5.2034774701170505 3.488548618051384 40.65179362852105 0 3 -3
4424 885 4 0.1634 10.448727773455575 6.817699665037033 34.03130952221503 1 -2 1
3912 783 2 -0.2406 2.967552542570175 2.4875100066864677 36.20126823943375 -2 -2 0
1901 381 1 -0.0184 5.744557432931857 4.168118670189356 42.06021342396026 0 3 -3
3911 783 1 -0.0184 2.038057095336587 1.8757781086691359 37.47377020527408 -2 -2 0
1341 269 1 -0.0184 3.8113747661112463 5.654213422409461 36.43542629565527 1 -1 -2
3914 783 4 0.1634 1.9680131993013275 2.915824365919506 38.223214353986236 -2 -2 0
3913 783 3 -0.1647 3.7801781579506573 2.3461735996890702 35.310473664479055 -2 -2 0
4634 927 4 0.1634 3.827805825455875 6.4653566012614485 42.91686551239318 0 -2 0
4141 829 1 -0.0184 5.591564544929122 11.513453531567468 38.614444542019996 3 -1 0
1904 381 4 0.1634 7.013328390183959 3.730187488630169 42.26925157556865 0 3 -3
3887 778 2 -0.2406 9.253480541060448 4.086442919242538 43.03266104536121 1 3 -2
4632 927 2 -0.2406 2.7502426766093055 4.54013434282225 43.86880266603841 0 -2 0
4710 942 5 0.2603 7.02294919810912 1.3120410149249506 41.72237200635718 4 1 -2
1342 269 2 -0.2406 5.116606172017217 5.502798932704677 35.44688775762618 1 -1 -2
4537 908 2 -0.2406 1.463588392155194 9.961856111042593 39.703751201444234 1 1 0
1173 235 3 -0.1647 4.025732226649304 0.7274246339823296 43.58280636738496 -1 -1 0
3888 778 3 -0.1647 8.799648344942378 5.062711931467569 42.61382632034627 1 3 -2
1344 269 4 0.1634 3.5380545545137125 4.35260248094917 36.40097093381734 1 -1 -2
4861 973 1 -0.0184 8.325628693335464 11.79260080315764 41.91933039580834 3 1 4
2545 509 5 0.2603 6.277147715608302 7.411688744910437 40.351774259114805 0 -1 -2
1964 393 4 0.1634 10.561572501737055 14.866155429375679 40.29189949462624 2 0 -1
1175 235 5 0.2603 4.562055195051929 0.7666305679973804 44.49457247397519 -1 -1 0
2543 509 3 -0.1647 6.722054254881147 6.629845780509727 39.73597220396121 0 -1 -2
3886 778 1 -0.0184 10.223484409387709 2.7904925923781105 42.85978351775223 1 3 -2
1903 381 3 -0.1647 5.002758627284964 2.6387163725873632 39.80927269181091 0 3 -3
3890 778 5 0.2603 8.35236755331049 5.94148255263522 42.19375996348176 1 3 -2
2173 435 3 -0.1647 7.43854424279614 2.058269593326453 34.7775237977295 1 -1 0
2172 435 2 -0.2406 7.174341052674133 0.948368348684709 35.19928864714987 1 -1 0
3754 751 4 0.1634 3.3739939695128833 4.6958893444872585 40.20074079881951 0 0 -2
1905 381 5 0.2603 4.783067404904462 1.9161655800974229 39.06553585311565 0 3 -3
280 56 5 0.2603 0.48736334918500845 2.26075136307988 34.80259018426299 -1 0 -1
4876 976 1 -0.0184 6.483641354517199 14.441899012486289 44.11133517475484 -2 -1 2
2541 509 1 -0.0184 7.2502573972648205 4.655532594460358 37.79316488918386 0 -1 -2
2544 509 4 0.1634 6.159358564399157 5.0995067466141615 37.13604921663821 0 -1 -2
2542 509 2 -0.2406 7.204026099685828 5.756074994076612 39.073861185789895 0 -1 -2