LAMMPS data file via write_data, version 29 Aug 2024, timestep = 7206723, units = real

6000 atoms
4 atom types
5000 bonds
3 bond types
7000 angles
3 angle types
3000 dihedrals
1 dihedral types

-0.34061366491742007 40.735443664898185 xlo xhi
-0.9415397714181069 39.98346977141607 ylo yhi
-0.9114728256637257 39.84970282565487 zlo zhi

Masses

1 1.008
2 1.008
3 12.011
4 15.999

Pair Coeffs # lj/cut/coul/long

1 0.03 2.5
2 0 0.5
3 0.066 3.5
4 0.17 3.12

Bond Coeffs # harmonic

1 340 1.09
2 320 1.41
3 553 0.96

Angle Coeffs # harmonic

1 55 108.5
2 33 107.8
3 35 109.5

Dihedral Coeffs # opls

1 0 0 0.45 0

Atoms # full

1813 303 3 0.145 6.13537422049968 4.0003933548247925 3.099772839606195 1 0 0
1815 303 1 0.04 5.610181812820548 3.141568961433368 3.4413732297769624 1 0 0
650 109 4 -0.6830000000000001 4.002584770177205 0.17893198925675446 4.195582198057979 0 0 1
1817 303 1 0.04 7.042894973939916 3.8962033291880243 3.6746576938156386 1 0 0
1814 303 4 -0.6830000000000001 5.584958248135679 5.2906013101468226 3.3394332463425203 1 0 0
2955 493 1 0.04 2.2724560748380456 9.073951420282691 3.0908588842272415 -1 3 1
1818 303 2 0.418 6.156933231832696 5.864491396218815 2.769819535220446 1 0 0
5924 988 4 -0.6830000000000001 3.374791253544904 0.42114438754012995 11.757809124693248 1 0 1
1816 303 1 0.04 6.268766979797868 3.8588984587123365 2.028992418947558 1 0 0
3868 645 1 0.04 5.322493784282389 8.178351468238885 0.4197437549407692 -1 1 2
2211 369 1 0.04 7.153360719327428 6.153719531567781 5.092790286759631 1 1 3
1095 183 1 0.04 1.1081240006030628 -0.17830884082690712 4.663106401303458 0 2 0
2209 369 3 0.145 8.024977873902353 6.576117763333985 5.55789070998092 1 1 3
2213 369 1 0.04 7.850569944105677 7.660167948239048 5.8075295921507815 1 1 3
3870 645 2 0.418 7.216443463277425 5.926455902884041 0.557985627584558 -1 1 2
1006 168 1 0.04 6.674359007043375 8.86113217642086 3.8067070766789257 1 0 2
290 49 4 -0.6830000000000001 8.580365517618207 4.837530813160938 0.043515349075960774 0 -1 -2
3869 645 1 0.04 6.8188845239628995 8.098899546825095 -0.5567854023008421 -1 1 2
707 118 1 0.04 8.487418893443492 7.9417897899435115 10.783859284217998 0 0 0
654 109 2 0.418 4.82898444762705 0.49954372421595616 3.7411154172913808 0 0 1
106 18 1 0.04 8.934768855642394 8.680107859926155 0.5894145225080349 3 -3 1
3866 645 4 -0.6830000000000001 6.5740965789177555 6.536269729173951 0.898209139089938 -1 1 2
1990 332 1 0.04 3.0347660348650685 0.8963202982842498 1.4808320287965477 1 0 -1
1094 183 4 -0.6830000000000001 1.5126879484338935 1.7088598547847025 3.655557267161008 0 2 0
3944 658 4 -0.6830000000000001 5.687601534737422 0.7138329037046831 1.8336234768769506 0 0 1
1420 237 1 0.04 6.953625640761261 1.7530473831778761 12.58586252043657 2 0 0
3943 658 3 0.145 6.79139098415211 -0.25590336113422496 1.6109800817995885 0 0 1
2212 369 1 0.04 8.207439661633979 5.9217682472854944 6.469987917633992 1 1 3
2661 444 1 0.04 4.2621753742884385 5.1178173115330345 0.8180353622359671 1 0 1
2662 444 1 0.04 2.597749023532302 4.825266236804996 0.8938842127528392 1 0 1
2742 457 2 0.418 6.393027814449992 1.072507804438939 6.339526280764563 -4 -1 1
1093 183 3 0.145 0.886395440355122 0.8994252278946075 4.645170079479357 0 2 0
294 49 2 0.418 7.9722912449902505 4.0571040930377205 -0.18832628409542895 0 -1 -2
4213 703 3 0.145 1.6082375018915924 7.839201997255795 0.14792016605772074 1 1 1
3865 645 3 0.145 6.068401036371358 7.475866340642531 -0.04762557573070658 -1 1 2
1098 183 2 0.418 2.4707239569629773 1.4278875615618465 3.6128989232944226 0 2 0
3268 545 1 0.04 1.4357490232829675 5.890611391764533 2.9081575904258146 0 -1 2
3947 658 1 0.04 7.5298976009833245 0.10663368549105035 0.9148246669494404 0 0 1
289 49 3 0.145 9.733842121317782 4.367476783262518 0.714400782997026 0 -1 -2
296 50 4 -0.6830000000000001 6.435766547245576 3.0338582463163184 -0.3587715793698337 1 2 1
1096 183 1 0.04 1.1975772514762517 1.3394917224591416 5.624191930450954 0 2 0
3269 545 1 0.04 0.3132090587287438 6.211297228379054 4.2639278815487 0 -1 2
1106 185 4 -0.6830000000000001 6.73193399384578 9.168114149790226 8.254925819966763 2 1 0
2660 444 4 -0.6830000000000001 3.762330288978938 3.7563535050395567 -0.4774259480297579 1 0 1
3945 658 1 0.04 7.2258962636808635 -0.30797107710058047 2.589074608492804 0 0 1
4535 756 1 0.04 1.2214406825571398 7.664483947102834 6.839020965580119 0 2 2
4531 756 3 0.145 1.0192756878428033 8.744506868025566 6.798747096305258 0 2 2
6 1 2 0.418 4.957487828781541 5.257829535860917 5.035022509977572 2 1 -3
3948 658 2 0.418 5.567986608382899 1.0925153607633118 0.9844494678121591 0 0 1
5928 988 2 0.418 3.0007576641624216 0.6054043880002391 12.650969266040576 1 0 1
3492 582 2 0.418 9.625571409169915 1.1373774851783787 11.629026945130862 -1 3 -1
2663 444 1 0.04 3.662759611923593 3.6550444941266953 1.601208806634399 1 0 1
292 49 1 0.04 9.457485215073763 4.050202662444973 1.7656786386706043 0 -1 -2
3265 545 3 0.145 0.4025080195669968 5.818038421544299 3.245836162568339 0 -1 2
2210 369 4 -0.6830000000000001 9.062859767962022 6.2742317601269235 4.707055685809963 1 1 3
300 50 2 0.418 5.48298702606189 3.224280642999683 -0.33485055954437115 1 2 1
2659 444 3 0.145 3.508275297789606 4.320807279699478 0.787005502852435 1 0 1
5388 898 2 0.418 6.530924828316024 6.434834720404869 11.3651115771456 1 2 0
2214 369 2 0.418 9.109365119752749 5.29850183136663 4.568868232485884 1 1 3
1991 332 1 0.04 1.6119911634741981 1.2732341721626286 0.5036075774548163 1 0 -1
3372 562 2 0.418 9.707126616885306 3.030592340356492 12.218249015626558 -2 -1 -1
5384 898 4 -0.6830000000000001 6.588614776731018 5.939084307431382 12.143075419609316 1 2 0
1989 332 1 0.04 2.0150268618610583 -0.4241169432748505 0.7890757102861012 1 0 -1
5926 988 1 0.04 2.151144670326233 0.964473631815465 10.270148268599659 1 0 1
4534 756 1 0.04 0.4414319799897204 8.875171867865607 5.957598198707802 0 2 2
4166 695 4 -0.6830000000000001 9.843740751305416 3.8772039247124326 10.560079656730558 0 2 1
4215 703 1 0.04 1.247081202070583 8.543333080879364 0.9441330339728322 1 1 1
2738 457 4 -0.6830000000000001 7.102504889894452 0.4107500801898567 6.482581607486966 -4 -1 1
2128 355 1 0.04 0.1238750717849289 4.677980731223012 10.240549352899148 -1 -3 0
5386 898 1 0.04 4.662536120157158 5.398998339035571 12.068786657322825 1 2 0
5591 932 1 0.04 7.919195169177026 2.2472409134569453 5.1430734550754496 1 -1 -1
3867 645 1 0.04 5.608697221642411 6.893351235779984 -0.8304508246984716 -1 1 2
2501 417 1 0.04 5.682906659655205 5.96088422173891 8.11774508938757 0 0 0
4530 755 2 0.418 5.03374664032389 3.190098806605346 7.4626156627301725 1 1 0
2113 353 3 0.145 2.248199525457725 7.511215628822226 9.872939789336092 0 3 0
4528 755 1 0.04 2.804798795378122 2.513255139618998 7.58895494650417 1 1 0
2115 353 1 0.04 2.3357870378761483 6.664670307170714 9.22513306664034 0 3 0
2114 353 4 -0.6830000000000001 3.2111523689627406 7.254657249395725 10.871023282994791 0 3 0
2499 417 1 0.04 7.230815154865381 6.06770477510383 8.806666825654878 0 0 0
5927 988 1 0.04 2.7150657774446927 2.2554884916986455 11.278695463376426 1 0 1
2500 417 1 0.04 5.929747210006629 5.112292744249353 9.676057190191951 0 0 0
2117 353 1 0.04 2.2596971748736783 8.526861146242341 9.411007204827964 0 3 0
1988 332 4 -0.6830000000000001 3.228209552208984 0.6553280071226206 -0.553410785485067 1 0 -1
4167 695 1 0.04 8.46552444313248 4.001877622117479 8.982584097044292 0 2 1
2126 355 4 -0.6830000000000001 -0.19799041092542144 3.570164919533081 8.459055784044612 -1 -3 0
4218 703 2 0.418 0.17974232602390972 6.670398412724968 0.8045087311617085 1 1 1
5923 988 3 0.145 3.0595411061365567 1.3328986505594291 10.780529822172563 1 0 1
103 18 3 0.145 9.878867852907762 8.487650710588444 1.0831499179038548 3 -3 1
1417 237 3 0.145 6.224397084036468 2.5609506954177665 12.61360639318171 2 0 0
5588 932 4 -0.6830000000000001 9.618452317549746 3.581549840004117 4.9010458205496406 1 -1 -1
5590 932 1 0.04 7.931701652906142 3.6109960126350336 6.258053360888506 1 -1 -1
2497 417 3 0.145 6.19225818256481 6.023632767713914 9.088274341603645 0 0 0
4527 755 1 0.04 3.451567198756303 0.8756910839282961 7.2164889034401085 1 1 0
3 1 1 0.04 3.2557842925605285 6.52853851088714 6.060945194542669 2 1 -3
4526 755 4 -0.6830000000000001 4.874071148523293 2.2646096844085464 7.595028790844715 1 1 0
2502 417 2 0.418 5.924824273875122 7.93002453600954 9.083578860623945 0 0 0
1 1 3 0.145 3.45470275400686 5.462032981145678 6.251460217789945 2 1 -3
2 1 4 -0.6830000000000001 4.707908417079389 4.978942247474938 5.940586445142638 2 1 -3
5587 932 3 0.145 8.576676435049244 2.9582326075388043 5.65141529140066 1 -1 -1
2118 353 2 0.418 4.104833753779454 7.351234167188181 10.518099109099278 0 3 0
4169 695 1 0.04 9.26338430350107 2.283165512590966 9.101918001384313 0 2 1
5856 976 2 0.418 -0.01750748005088365 2.035811722762992 2.143071190806954 0 -1 -3
5589 932 1 0.04 9.169825019033574 2.3583692297613297 6.33769406916435 1 -1 -1
3267 545 1 0.04 0.12039017939802693 4.814035221153454 3.303307770257857 0 -1 2
2116 353 1 0.04 1.2977929255356122 7.272981636696208 10.3878794381059 0 3 0
5 1 1 0.04 3.1924884257969977 5.296086610750163 7.343863594724805 2 1 -3
703 118 3 0.145 8.512783979361828 8.839961756095958 11.40459197212478 0 0 0
4525 755 3 0.145 3.5593962792983085 1.9478668191028068 7.068826036059674 1 1 0
1421 237 1 0.04 6.067973820201016 2.596421040036799 11.564419695300694 2 0 0
4 1 1 0.04 2.7198808227697047 4.925355437637822 5.692899928339426 2 1 -3
4165 695 3 0.145 9.404128657241502 3.4498191558315865 9.232540464394619 0 2 1
4529 755 1 0.04 3.650424510413002 2.075195951369617 6.00328802265869 1 1 0
112 19 1 0.04 0.2763367689503644 -0.1660110609797263 8.456065073963613 0 0 -1
2498 417 4 -0.6830000000000001 5.763022776851579 7.192732441715668 9.757873753865997 0 0 0
2127 355 1 0.04 0.3898881634013548 2.948497634561774 10.40904986852537 -1 -3 0
4533 756 1 0.04 0.4014975022466959 8.950445853096337 7.662295569122527 0 2 2
5925 988 1 0.04 3.795079450070028 1.5112780122133507 9.981680079399421 1 0 1
1992 332 2 0.418 3.271814550415173 1.56466459854459 -0.8756942668222747 1 0 -1
705 118 1 0.04 9.47806736953963 8.829670239110008 11.957478512407995 0 0 0
4214 703 4 -0.6830000000000001 0.7045855870940156 6.742218744166029 0.0038278431802859503 1 1 1
4217 703 1 0.04 1.6066370102453766 8.299214619587598 -0.8723450831267333 1 1 1
1987 332 3 0.145 2.4466374140477343 0.5662868748577132 0.6004997520769422 1 0 -1
5319 887 1 0.04 9.01970805676474 8.002410026420504 7.97793765738585 2 0 -2
108 18 2 0.418 8.836100175484775 7.546344824037321 2.452866624410619 3 -3 1
4216 703 1 0.04 2.6742719347887665 7.650678406730311 0.3703240149318765 1 1 1
1108 185 1 0.04 5.111672717774339 9.284093497294124 7.003469881250661 2 1 0
2125 355 3 0.145 -0.20081225184437745 3.6630010505888784 9.885106575390534 -1 -3 0
706 118 1 0.04 7.58274596184396 8.643746989521647 11.992553444284713 0 0 0
201 34 1 0.04 5.806573313584228 -0.5446258116140875 11.027509057499817 0 -1 1
104 18 4 -0.6830000000000001 9.48859016603914 8.303299294811382 2.445129229224361 3 -3 1
2737 457 3 0.145 6.246011424653714 -0.7457536064009652 6.686690885280972 -4 -1 1
3324 554 2 0.418 2.7268481261889486 7.299009503431154 12.58581313950095 1 0 1
2739 457 1 0.04 5.259859148681182 -0.6739898396627307 6.243333023482391 -4 -1 1
1097 183 1 0.04 -0.22835986344719145 0.8786000989225238 4.567470180957114 0 2 0
2741 457 1 0.04 6.146427794151847 -0.6509222638646297 7.742341841260787 -4 -1 1
5317 887 3 0.145 9.901137153988476 8.678580004384004 8.102483340441543 2 0 -2
344 58 4 -0.6830000000000001 2.734838422830829 0.795861604680385 14.416930097493951 2 -1 0
518 87 4 -0.6830000000000001 7.186389487994649 4.840621481093263 18.122142749687722 1 1 1
5707 952 3 0.145 7.545106263845907 1.9251985449225684 16.400691846445618 3 1 -2
5658 943 2 0.418 9.448035689677251 1.5438998745731007 18.600759746621126 2 2 0
522 87 2 0.418 6.612845322841109 5.511347066240265 17.68768122480685 1 1 1
1017 170 1 0.04 0.6376677502566613 7.015967573211479 16.258181127769678 2 1 -2
346 58 1 0.04 1.4826032348854068 -0.3104340726079332 15.588067685841914 2 -1 0
5711 952 1 0.04 8.086761715457593 2.732887958549051 15.853324121941899 3 1 -2
5708 952 4 -0.6830000000000001 7.770995667670741 2.1129181773731607 17.81340427795228 3 1 -2
5710 952 1 0.04 6.488286117623862 1.9165977864257102 16.07249540849224 3 1 -2
2834 473 4 -0.6830000000000001 4.935450309151587 6.178441540144013 16.951863505360247 -1 3 0
5712 952 2 0.418 7.421433429767014 2.9786545321392164 18.049296408797638 3 1 -2
347 58 1 0.04 0.7217839101689307 1.1016881733445119 14.698490774103668 2 -1 0
1418 237 4 -0.6830000000000001 5.180475363383869 2.1776987265537504 13.437103061500533 2 0 0
343 58 3 0.145 1.4422293725685937 0.2645626935546401 14.666764508179076 2 -1 0
2570 429 4 -0.6830000000000001 0.9703029195795478 3.1680919990661156 17.69387574016067 0 0 1
348 58 2 0.418 3.0532172697485667 1.2228859725271635 15.234893167773599 2 -1 0
4312 719 1 0.04 2.338678973947562 4.532560525962055 13.637707981171355 0 0 -2
1200 200 2 0.418 9.91851764584422 1.140429710235503 20.686933735073513 0 2 1
5387 898 1 0.04 5.433567506600742 5.18362762746265 13.623942319832699 1 2 0
4309 719 3 0.145 2.434615857573604 4.282001535828459 14.709968221749074 0 0 -2
2838 473 2 0.418 4.30012660168629 5.775351156610498 16.341476111543443 -1 3 0
4314 719 2 0.418 4.252286547677248 3.447727095964707 14.734821692129245 0 0 -2
4310 719 4 -0.6830000000000001 3.7521546917854876 4.084603051046105 15.254862867302084 0 0 -2
2837 473 1 0.04 4.074728435690366 7.731289627988559 15.965055359722498 -1 3 0
4479 747 1 0.04 9.236220120662205 8.785596615278331 16.780263400106207 0 0 1
2835 473 1 0.04 4.05196379714284 7.900406475812959 17.733866832378013 -1 3 0
5709 952 1 0.04 8.02649186272407 1.013171109797017 16.036623637580394 3 1 -2
2833 473 3 0.145 4.647958510601182 7.598116618318821 16.936607469373843 -1 3 0
1834 306 1 0.04 8.629947351039984 4.639389682565647 14.534659614070673 0 -1 -1
4313 719 1 0.04 1.7622510578248503 3.4105772415841473 14.892281165322817 0 0 -2
2573 429 1 0.04 2.8987261588596493 2.415000450129421 17.786792104453323 0 0 1
5383 898 3 0.145 5.370417675951119 5.883475103801549 12.778771969719864 1 2 0
1197 200 1 0.04 8.617950544709586 2.880795033176167 21.411259827839007 0 2 1
3391 566 3 0.145 4.131034562784876 -0.7713985346909286 17.392107252490213 1 -1 1
4311 719 1 0.04 1.9797088313147784 5.118245721336745 15.161030154395068 0 0 -2
4478 747 4 -0.6830000000000001 9.686761087203436 8.813830744404022 14.783858311783332 0 0 1
1831 306 3 0.145 8.14296976479163 5.5385148000485485 15.057877575883676 0 -1 -1
2836 473 1 0.04 5.638819894109021 8.072426025155597 17.022714556408502 -1 3 0
2569 429 3 0.145 2.304852408840816 3.291768325240125 18.08618298022344 0 0 1
5656 943 1 0.04 9.215001833173886 -0.7504662646530206 20.221450930856196 2 2 0
3393 566 1 0.04 4.223649175362182 0.29086066000120003 17.24263454858349 1 -1 1
4622 771 4 -0.6830000000000001 -0.26223331866115024 4.903074455803287 20.80621549920585 1 -1 0
1018 170 1 0.04 0.054651124537664963 7.48838085549421 17.945859667629374 2 1 -2
4235 706 1 0.04 7.803094792527581 8.392604618230225 18.503075038610408 2 1 2
1198 200 1 0.04 9.89373840655995 2.934736270571476 22.680130580712373 0 2 1
3234 539 2 0.418 8.833053950342194 6.1063027762583815 26.103007685466796 -1 -1 1
4155 693 1 0.04 9.220263902708238 8.293583752167068 22.93047983791927 1 1 0
5987 998 1 0.04 4.655178886030332 3.320023913238394 20.11953092696903 0 1 0
1832 306 4 -0.6830000000000001 8.311771848693642 6.584223850489249 14.258515609184217 0 -1 -1
1833 306 1 0.04 7.130357795430995 5.29296780579416 15.333415225813269 0 -1 -1
1836 306 2 0.418 7.650162736121335 6.452425634075023 13.561421449182438 0 -1 -1
1422 237 2 0.418 4.674199484663465 1.535162542096875 13.000196088550515 2 0 0
5655 943 1 0.04 8.992327860834616 -0.7858197823910718 18.435088834342388 2 2 0
1019 170 1 0.04 1.3011765086406968 6.310351378454868 17.79458281596326 2 1 -2
3322 554 1 0.04 2.2026522052205744 9.007266669627006 14.817631993718674 1 0 1
5653 943 3 0.145 9.043827210663146 -0.18428076025851514 19.307331845249244 2 2 0
2572 429 1 0.04 2.3016924683881514 3.3397211329466945 19.170846965579997 0 0 1
3320 554 4 -0.6830000000000001 2.4901296171639573 7.559614319907958 13.522072892841459 1 0 1
5385 898 1 0.04 4.980054748205675 6.869767173140036 13.044170659811412 1 2 0
3319 554 3 0.145 2.2743409271415067 8.912814300853686 13.72848544914226 1 0 1
4157 693 1 0.04 8.019748619616141 8.401787791667045 21.7046569082922 1 1 0
4482 747 2 0.418 9.606295867804699 7.894440856060843 14.595603479162603 0 0 1
1050 175 2 0.418 6.239106747722341 0.9060426219423785 24.969328459126025 0 -1 0
5985 998 1 0.04 5.526514662152393 2.5584441779772034 21.449646054012206 0 1 0
5281 881 3 0.145 1.0962721105283315 3.8159384114995625 25.077512959501448 2 0 0
4656 776 2 0.418 2.966491379704491 6.211136745077741 23.350040161469604 0 -1 1
5285 881 1 0.04 0.5327194127527267 4.679868846376565 24.642971759420195 2 0 0
2205 368 1 0.04 0.6245305106233211 -0.4794783398152982 25.744502110042035 3 1 -3
3229 539 3 0.145 8.666289146376375 4.268855603136846 25.377970487829703 -1 -1 1
3368 562 4 -0.6830000000000001 9.615317447355023 2.583476406264855 13.052625218790064 -2 -1 -1
3873 646 1 0.04 3.2927738277930962 5.262098915838626 20.173221628668887 1 0 -1
2938 490 1 0.04 8.818141971569178 1.1838892334915951 24.798373437653385 1 2 -2
345 58 1 0.04 1.1460778424570197 -0.40840662346228307 13.795663670103245 2 -1 0
517 87 3 0.145 7.82835872300109 5.457025987342248 19.260339416294563 1 1 1
4652 776 4 -0.6830000000000001 3.5124848114069027 6.275495703847083 24.214687653760244 0 -1 1
520 87 1 0.04 8.485259607030441 4.770589224949319 19.710665425098064 1 1 1
521 87 1 0.04 8.374132743117993 6.346652218935489 18.863982561946944 1 1 1
519 87 1 0.04 7.072419938783106 5.813746140458283 20.011073082754724 1 1 1
4655 776 1 0.04 4.613321285937969 7.812143803265297 23.459385903502326 0 -1 1
2935 490 3 0.145 8.816089396874837 0.4506561419826587 25.587660401923557 1 2 -2
2677 447 3 0.145 1.2417529063678685 -0.3136827947970321 21.668147754462492 0 1 0
4153 693 3 0.145 8.138661275134073 8.348563826445865 22.75233981853968 1 1 0
2681 447 1 0.04 0.49494719957457634 0.47642081497149036 21.930150072775277 0 1 0
3876 646 2 0.418 1.3586470524215866 5.620399166686251 21.64082644364226 1 0 -1
3230 539 4 -0.6830000000000001 9.333152403025075 5.550820744175587 25.489858456331238 -1 -1 1
4654 776 1 0.04 4.552912966257272 7.81820783017962 25.184166191619376 0 -1 1
5983 998 3 0.145 5.191465949638624 2.455325868529496 20.43194578620118 0 1 0
3875 646 1 0.04 3.658299091070417 6.9751425242672065 20.490196169555745 1 0 -1
2682 447 2 0.418 2.5057858165795395 0.6155120701252244 20.544772987275994 0 1 0
1419 237 1 0.04 6.946596525681538 3.3154001002765963 12.977702418317202 2 0 0
568 95 1 0.04 7.125956944917418 -0.8060842104256075 13.489409318189 -1 0 -2
1195 200 3 0.145 9.660608936583632 2.642525161043093 21.709884684243185 0 2 1
1015 170 3 0.145 0.40214741138335064 6.620776058968609 17.33597154248733 2 1 -2
5986 998 1 0.04 6.09669091735111 2.464404529479641 19.8122100350333 0 1 0
2937 490 1 0.04 8.455972514910012 -0.47493725397166114 25.159604263937652 1 2 -2
3232 539 1 0.04 9.410352167423277 3.518491670318185 25.156586092773278 -1 -1 1
5984 998 4 -0.6830000000000001 4.324875524980191 1.3916776584503916 20.178707048053823 0 1 0
5657 943 1 0.04 8.129205621525776 0.3502782318447566 19.62495858561693 2 2 0
3871 646 3 0.145 2.888886036912282 6.196226581353963 20.498655801858476 1 0 -1
2678 447 4 -0.6830000000000001 1.8585213412007588 -0.08098400840211673 20.384058588433252 0 1 0
2680 447 1 0.04 1.8375805321451533 -0.4081210820346285 22.509423045879785 0 1 0
3872 646 4 -0.6830000000000001 2.254178638917801 5.983351918275092 21.819812295261407 1 0 -1
5988 998 2 0.418 4.9504788018536106 0.6583486844562783 20.217539813925537 0 1 0
1048 175 1 0.04 3.5519625219082815 1.3061025905630177 24.43445383955171 0 -1 0
4651 776 3 0.145 3.9717107138528176 7.552865304454231 24.311689709398184 0 -1 1
3874 646 1 0.04 2.117491469434468 6.60970048733093 19.946769745453338 1 0 -1
2939 490 1 0.04 9.841708994517983 0.3172826273350502 25.761966483059492 1 2 -2
1196 200 4 -0.6830000000000001 9.836059569806949 1.2493006842983658 21.652422277671263 0 2 1
3527 588 1 0.04 0.28774196187844425 8.080102209590933 23.496994924917484 -1 2 0
1047 175 1 0.04 4.65943772256415 0.05042627592159865 23.889540332346296 0 -1 0
1835 306 1 0.04 8.582382746713574 5.797718814880668 16.041008129317227 0 -1 -1
3231 539 1 0.04 8.016495167203853 4.206272256419924 24.470606695414006 -1 -1 1
5284 881 1 0.04 0.6290708312178157 2.8710302552968074 24.812316983887293 2 0 0
2571 429 1 0.04 2.7258690894022077 4.18472906419148 17.64465274438496 0 0 1
5283 881 1 0.04 2.1795684521667145 3.812272421682544 24.66518053948049 2 0 0
1046 175 4 -0.6830000000000001 5.430542388384647 1.3348914781417274 25.213188556905987 0 -1 0
1049 175 1 0.04 4.796045288911957 1.6195515892394812 23.284336587414664 0 -1 0
4877 813 1 0.04 4.976381423217667 4.970287555061007 26.026367723296108 1 -1 -2
1045 175 3 0.145 4.5285383218351125 1.066667396877547 24.165070489139644 0 -1 0
4156 693 1 0.04 7.698621924349478 7.474386822239081 23.201807355623163 1 1 0
4653 776 1 0.04 3.2074710834459186 8.22538195669654 24.401821821812643 0 -1 1
2574 429 2 0.418 0.5426618913866713 4.0723594656827915 17.756048646889116 0 0 1
3395 566 1 0.04 3.3210499141321765 -0.8197899535465003 18.146614273161365 1 -1 1
3233 539 1 0.04 8.047227638245255 4.042622298747337 26.185244053687327 -1 -1 1
1944 324 2 0.418 3.8358040089478944 4.4266315103991145 31.49456908446165 -1 -1 0
1940 324 4 -0.6830000000000001 3.285996217444665 5.195141873624282 31.18636644889479 -1 -1 0
4683 781 1 0.04 4.602762590302448 -0.36968907839581544 26.59064158141401 -1 1 0
889 149 3 0.145 2.3025011899091052 1.1860166983766613 27.97079324171371 0 1 -2
891 149 1 0.04 2.6841586764338468 1.2484938540954063 26.98540784990252 0 1 -2
5520 920 2 0.418 9.603480858194072 7.482434499510109 36.61626883717015 1 -1 0
894 149 2 0.418 1.20175294039074 2.6751108003503026 27.618905530536555 0 1 -2
3768 628 2 0.418 2.276213951733 6.632709365377331 28.234984340210865 0 -2 1
5105 851 1 0.04 6.619671173460876 7.207227348555742 28.25332079164887 -1 -2 3
315 53 1 0.04 5.955474768067349 5.336611605784617 31.41945589892155 3 0 -1
1686 281 2 0.418 3.5425115166453325 6.819129585192914 30.034182488050742 0 0 0
5102 851 4 -0.6830000000000001 8.174453345330113 7.854064986469943 27.153386791316883 -1 -2 3
163 28 3 0.145 9.56749169289856 3.02801285549641 37.69071499351564 -1 -1 0
2936 490 4 -0.6830000000000001 8.266757006051922 0.8054970831532848 26.784012583461042 1 2 -2
1682 281 4 -0.6830000000000001 3.3530559990189217 7.342247440450363 29.25272096949453 0 0 0
4958 827 4 -0.6830000000000001 8.632474014972802 -0.41588444218228116 35.83179116744917 -1 3 1
893 149 1 0.04 2.1935598926537163 0.1135838829125897 28.318953775347715 0 1 -2
4629 772 1 0.04 0.08493539107874432 9.232513634112152 29.976831277471113 2 0 1
4875 813 1 0.04 3.71101494720346 3.9588129301364203 26.869753775501575 1 -1 -2
1681 281 3 0.145 3.761969914937387 8.598402218260526 29.629890653928854 0 0 0
890 149 4 -0.6830000000000001 1.0295431654678258 1.832438927262534 28.140917521521818 0 1 -2
1683 281 1 0.04 2.834045542046771 9.164889444478797 29.614876179983135 0 0 0
4961 827 1 0.04 6.6781213683551375 -0.8584988605641587 36.198055730135636 -1 3 1
316 53 1 0.04 7.602673921339158 4.621009660687887 31.125367838301383 3 0 -1
317 53 1 0.04 6.175086958229017 4.153093120410563 29.965011775189744 3 0 -1
5518 920 1 0.04 7.1739362588984985 8.951427206689868 36.03439595472486 1 -1 0
5249 875 1 0.04 2.0410692066010383 8.74846363844139 32.98486319549232 2 0 2
313 53 3 0.145 6.450058508868432 4.4117242218536346 31.02216270266372 3 0 -1
892 149 1 0.04 3.1115851828676027 1.6267382679800546 28.58340513779023 0 1 -2
314 53 4 -0.6830000000000001 6.155197958573173 3.3048058113157 31.8620437748618 3 0 -1
3766 628 1 0.04 -0.22682113577811663 6.820772128867523 27.743166599107486 0 -2 1
710 119 4 -0.6830000000000001 6.566072702672778 0.8713451340143725 30.72750884023193 -1 1 -1
318 53 2 0.418 6.496025639901308 2.5095244289724414 31.463745296665156 3 0 -1
4876 813 1 0.04 4.648348308156966 5.070993078866913 27.823279902594297 1 -1 -2
5248 875 1 0.04 1.401816921798063 7.76153712438939 31.700862499146158 2 0 2
714 119 2 0.418 5.928001192791064 0.40810533684845085 30.166854743614717 -1 1 -1
1672 279 1 0.04 9.622735319846292 3.117958156437391 32.4153210675108 -1 1 0
3764 628 4 -0.6830000000000001 1.7632111763234861 6.4015431731177195 27.491583255599448 0 -2 1
3763 628 3 0.145 0.7337394926736851 7.319555972911923 27.366324662587317 0 -2 1
2940 490 2 0.418 8.330807175518409 -0.011524069736964071 27.352316297386935 1 2 -2
2722 454 1 0.04 7.608910468170166 5.122280625920749 34.93540102582271 2 0 0
4874 813 4 -0.6830000000000001 5.5201239415264345 3.3274565636405393 27.194913993251873 1 -1 -2
5286 881 2 0.418 1.7218330467805543 4.802657613014544 26.622877324977356 2 0 0
5103 851 1 0.04 6.132888115295894 8.03339418892616 26.741477378348403 -1 -2 3
1428 238 2 0.418 0.5654460687500279 1.51010785402159 30.209899755175403 2 1 2
5101 851 3 0.145 6.871282948627452 7.422668837774655 27.206750696033605 -1 -2 3
4873 813 3 0.145 4.6894633688866 4.3995667470839095 26.957022906675302 1 -1 -2
5247 875 1 0.04 1.7028308096529559 6.9882067597996125 33.34244237867679 2 0 2
5309 885 1 0.04 0.7933655324467463 4.1412384717587205 37.54329179084833 1 1 2
5245 875 3 0.145 1.3612543420382777 7.939409200077213 32.78239699217315 2 0 2
297 50 1 0.04 7.718995657696448 1.6876482185575452 39.455398766287445 1 2 0
4421 737 1 0.04 1.3873445703527452 -0.3399895677593333 38.92296825469808 2 1 -1
298 50 1 0.04 6.045929578539693 1.0375353380709444 39.746857578642505 1 2 0
1725 288 1 0.04 2.8942221908010604 -0.2703684927065615 30.501003824275404 -2 1 0
5104 851 1 0.04 6.789866969855174 6.560795703481433 26.593531941037607 -1 -2 3
3767 628 1 0.04 0.9274971650745047 8.096057326660233 28.078643715582974 0 -2 1
2721 454 1 0.04 7.65937291330006 3.3432879064289605 35.25241748062366 2 0 0
5519 920 1 0.04 7.242002151100006 7.277233962714083 36.30881030750908 1 -1 0
4957 827 3 0.145 7.277622695548279 0.017178344200811213 36.11773331959007 -1 3 1
909 152 1 0.04 8.894194862215192 2.0992757295208984 29.552192767986046 -1 1 -2
907 152 3 0.145 9.926665016196253 1.8047005368482831 29.234955721559476 -1 1 -2
5307 885 1 0.04 0.6746078135845737 4.041996547067602 39.32372320529802 1 1 2
3894 649 2 0.418 9.726189512656006 -0.7419197796761178 34.57029323048984 0 1 -2
1424 238 4 -0.6830000000000001 -0.20882957654710652 1.6902944904480885 30.76428508711378 2 1 2
1362 227 2 0.418 0.0010206978291368296 0.5293735671103961 35.05906917556868 1 0 2
5516 920 4 -0.6830000000000001 9.095746947593199 8.061835471139405 36.07858348142173 1 -1 0
299 50 1 0.04 6.351633479543739 2.172129052560907 38.583552108693425 1 2 0
4960 827 1 0.04 6.8657148032950355 0.661781314436942 35.356531626255006 -1 3 1
5246 875 4 -0.6830000000000001 0.10220835341954948 8.441657278249863 33.171052740509964 2 0 2
5308 885 1 0.04 1.4176730014829784 2.839472637596586 38.245988183425496 1 1 2
1358 227 4 -0.6830000000000001 -0.20829361633815516 1.4620580449174123 35.323993523132444 1 0 2
5282 881 4 -0.6830000000000001 1.3162833707789057 3.8992781837095016 26.469215175044056 2 0 0
712 119 1 0.04 8.310575071683424 0.5090773791547538 31.67731201951546 -1 1 -1
3765 628 1 0.04 0.6316605710748127 7.825512324792221 26.397756442095908 0 -2 1
709 119 3 0.145 7.4815135701853395 -0.0375543872706392 31.29572945573359 -1 1 -1
3454 576 1 0.04 4.065349070295844 8.416271035588595 39.05214686032214 0 2 -1
4959 827 1 0.04 7.20919498522141 0.5068322691995102 37.108297718261625 -1 3 1
711 119 1 0.04 7.880583615560946 -0.7253154780577236 30.51207183227719 -1 1 -1
1939 324 3 0.145 2.0877881405847427 4.605904697275604 30.68752613375061 -1 -1 0
167 28 1 0.04 9.120659944347576 3.415568017676497 38.57953506233224 -1 -1 0
1941 324 1 0.04 1.6801505678900992 3.9967353400689722 31.428198340572852 -1 -1 0
2719 454 3 0.145 7.070422988446898 4.275775787143238 35.257685158388895 2 0 0
5305 885 3 0.145 0.6199027973245984 3.4911671989027493 38.37107546099246 1 1 2
1942 324 1 0.04 1.327526800686659 5.345439872091108 30.45473179794989 -1 -1 0
1943 324 1 0.04 2.1127694023845205 3.9986246134131704 29.7790773231445 -1 -1 0
4878 813 2 0.418 5.28244938584679 2.626525423923244 26.612525154375014 1 -1 -2
1448 242 4 -0.6830000000000001 3.39435906344967 5.185061185381597 37.85690522465468 -1 0 -2
1451 242 1 0.04 1.846262199471612 6.556340529453807 37.51607144612008 -1 0 -2
1685 281 1 0.04 4.417805315143767 9.13506440134535 28.94384009881887 0 0 0
5515 920 3 0.145 7.7632610973963985 8.216104178411252 36.59075033029026 1 -1 0
1452 242 2 0.418 3.8414377652413254 4.500775068122017 37.2863698210013 -1 0 -2
2720 454 4 -0.6830000000000001 5.905563210635076 4.116466433811079 34.50102047911764 2 0 0
1684 281 1 0.04 4.236894261412769 8.6336048858388 30.58793297610435 0 0 0
5661 944 1 0.04 2.344033217099485 1.9381724035447045 35.65104037500484 1 1 -3
5106 851 2 0.418 8.172340607121098 8.799394306502135 26.804267891850035 -1 -2 3
2723 454 1 0.04 6.874451449585649 4.285411580485825 36.33421845819707 2 0 0
2724 454 2 0.418 6.138547567446081 3.6103995334700683 33.66352367278337 2 0 0
165 28 1 0.04 8.695884833804554 2.4758955616387333 37.29131698953425 -1 -1 0
2664 444 2 0.418 3.7170387219045944 4.414336962070253 39.54904463378254 1 0 0
5659 944 3 0.145 3.304739214622398 1.5783353034677448 35.96055755727909 1 1 -3
1449 242 1 0.04 3.447191987747012 7.090529948652282 37.009615352725376 -1 0 -2
5662 944 1 0.04 3.8588662742030957 1.124976514706609 35.10696823099302 1 1 -3
1447 242 3 0.145 2.854103905447785 6.233391830487136 37.12333542455745 -1 0 -2