LAMMPS data file via write_data, version 29 Sep 2021, timestep = 1000000

5832 atoms
8 atom types
5103 bonds
7 bond types
7290 angles
10 angle types
6561 dihedrals
9 dihedral types
2187 impropers
3 improper types

3.4642414339459178 39.53575856603911 xlo xhi
3.4642414339459178 39.53575856603911 ylo yhi
3.4642414339459178 39.53575856603911 zlo zhi

Masses

1 14.007
2 12.011
3 15.999
4 1.008
5 1.008
6 1.008
7 1.008
8 1.008

Pair Coeffs # lj/cut/coul/long/omp

1 0.17 3.3
2 0.066 3.5
3 0.17 3.12
4 0 0
5 0 0
6 0.015 2.5
7 0.015 2.5
8 0 0

Bond Coeffs # harmonic/omp

1 382 1.448
2 320 1.41
3 434 1.01
4 434 1.01
5 340 1.09
6 340 1.09
7 553 0.945

Angle Coeffs # harmonic/omp

1 50 109.5
2 35 109.5
3 35 109.5
4 35 109.5
5 35 109.5
6 55 108.5
7 35 109.5
8 35 109.5
9 33 107.8
10 43.6 106.4

Dihedral Coeffs # opls/omp

1 0 0 0.4 0
2 -0.356 -0.174 0.492 0
3 0 0 0.4 0
4 0 0 0.4 0
5 0 0 0.4 0
6 0 0 0.45 0
7 0 0 0.45 0
8 0 0 0.4 0
9 0 0 0.4 0

Improper Coeffs # cvff/omp

1 0 -1 2
2 0 -1 2
3 0 -1 2

Atoms # full

1367 171 7 0.0592 9.880594329392604 9.208986367249596 4.00471752342836 0 0 1
1939 243 3 -0.5896 9.00267102088753 5.648780231033914 5.854389283067118 0 1 1
597 75 5 0.3986 6.913045011318906 7.757937871230637 7.119389229726659 0 1 0
1937 243 1 -0.9819 11.110661055186078 4.8927706461077545 5.230131992405259 0 1 1
138 18 2 0.233 6.7310596173948625 10.37659057896992 6.870337366814263 0 0 1
139 18 3 -0.5896 8.014275810006183 10.707289718286578 6.548791518730368 0 0 1
1366 171 6 0.0592 10.97712325157417 10.038382501316178 5.119022808323485 0 0 1
1940 243 4 0.3986 11.391793138404807 5.7516214486240855 4.733857506541189 0 1 1
1299 163 3 -0.5896 3.766424250346263 5.055547923643758 5.789481548024439 0 0 0
1298 163 2 0.233 5.124651485255985 5.238982262697662 5.947663120357 0 0 0
60 8 4 0.3986 3.669123486628738 6.935331998834383 4.275018312485408 0 0 1
1876 235 4 0.3986 10.119186754329062 3.793291098861314 4.18577601855399 0 1 0
141 18 5 0.3986 5.445471446818541 8.998037996187428 6.184276632977759 0 0 1
1363 171 3 -0.5896 11.72125333745733 8.249339332076355 4.517713119286428 0 0 1
143 18 7 0.0592 6.0147942257734766 11.15843294234325 6.6080338349335594 0 0 1
1944 243 8 0.4229 8.415447693548007 5.937021058311705 6.551656593224951 0 1 1
1942 243 6 0.0592 10.792583031715596 6.272767770518261 6.705311672123437 0 1 1
4551 569 7 0.0592 5.1493434361372135 12.069927887660974 3.910403317463536 1 0 0
1453 182 5 0.3986 11.448779840778043 8.759355397476302 7.335715965728871 0 0 0
61 8 5 0.3986 3.722768640576983 8.502294961800658 4.123456357277052 0 0 1
1361 171 1 -0.9819 10.060936596519728 8.467528743175128 6.060868962343095 0 0 1
1300 163 4 0.3986 6.715374351595049 5.121510583839619 4.792635036081498 0 0 0
1301 163 5 0.3986 5.541313107318784 5.7276364716609685 4.04256186604584 0 0 0
65 9 1 -0.9819 3.8495710341412117 9.232971639713723 7.375450793884166 0 0 1
144 18 8 0.4229 7.995783551596283 10.953825969860409 5.642038953810218 0 0 1
1365 171 5 0.3986 9.099996851747738 8.802265218949737 6.175928977612053 0 0 1
1362 171 2 0.233 10.628683752452009 9.085063821634794 4.840027822937273 0 0 1
1938 243 2 0.233 10.31975575884991 5.3739564732553955 6.323811283053673 0 1 1
142 18 6 0.0592 6.660531242722557 10.087198684942013 7.9463116776084615 0 0 1
1943 243 7 0.0592 10.243705344700595 4.679536793964831 7.204569568833874 0 1 1
137 18 1 -0.9819 6.463560686526267 9.215030158234 6.032635012914708 0 0 1
1364 171 4 0.3986 9.726249808259782 7.55405575756964 5.791527631865829 0 0 1
1302 163 6 0.0592 5.347583341063724 6.262322263645503 6.223834947250899 0 0 0
1297 163 1 -0.9819 5.746219990557353 4.950343155326102 4.636542171168419 0 0 0
140 18 4 0.3986 6.432463200922783 9.304575172056499 5.0146158905598455 0 0 1
1303 163 7 0.0592 5.437440149495272 4.6294311617488 6.791135888811641 0 0 0
1941 243 5 0.3986 11.99726359242359 4.774851624214925 5.691721324809202 0 1 1
593 75 1 -0.9819 7.317022041094033 6.953710966717319 7.588235547137851 0 1 0
4547 569 3 -0.5896 7.204803750565734 11.500547333022112 3.8984864497125633 1 0 0
57 8 1 -0.9819 4.106999835227589 7.6703253411347525 3.6977243497535803 0 0 1
718 90 6 0.0592 8.06160490609488 5.329203805157732 3.5669235184006607 0 0 1
70 9 6 0.0592 3.823950475388024 11.302188863609231 6.8738314235713265 0 0 1
1439 180 7 0.0592 12.022013306585073 11.869416275107532 3.908994774905696 0 0 1
596 75 4 0.3986 6.453503557841055 6.488440159724782 7.8593002831351475 0 1 0
4546 569 2 0.233 6.16273801581878 12.47498083418201 3.953446502635509 1 0 0
146 19 2 0.233 4.828461242322328 8.952351295972003 11.131931302566084 0 0 0
598 75 6 0.0592 7.472526669408297 7.896584759800026 9.48622848905458 0 1 0
29 4 5 0.3986 3.6152893704522344 5.979588785609533 10.837363446555326 0 0 0
885 111 5 0.3986 8.590784130014633 10.600457287556988 10.569331103302904 0 0 0
599 75 7 0.0592 9.00410317462946 7.916852099611822 8.65571431781271 0 1 0
1450 182 2 0.233 11.83698662757267 8.508059749093368 9.207587050520509 0 0 0
150 19 6 0.0592 5.24083277734692 7.9403607229905155 10.88803992771551 0 0 0
721 91 1 -0.9819 8.79138204860855 6.441155542986374 11.798682746527222 0 0 0
726 91 6 0.0592 7.433185100426002 4.842297118109043 11.685864289304883 0 0 0
147 19 3 -0.5896 5.365568739126326 9.928237651366377 10.248448176424237 0 0 0
600 75 8 0.4229 8.3523198887324 6.070327156537622 10.212853415335069 0 1 0
2033 255 1 -0.9819 11.62537637670924 5.9538903831344445 11.416237158861435 0 0 0
28 4 4 0.3986 3.8576170525890054 4.651175238553838 11.497547506929882 0 0 0
1378 173 2 0.233 10.255133376055277 11.92115575082773 9.468133271274896 0 0 0
152 19 8 0.4229 6.175759316643006 10.313574417002208 10.629051749823875 0 0 0
151 19 7 0.0592 5.14252309357282 9.100496846192424 12.154366316844072 0 0 0
1380 173 4 0.3986 12.084315851947483 11.684557694321867 8.875093435420498 0 0 0
723 91 3 -0.5896 9.307277262300246 4.300853454799943 11.279512415244694 0 0 0
722 91 2 0.233 8.418231989076116 5.064187728004175 11.98443656012042 0 0 0
2010 252 2 0.233 11.961496054123256 3.493603675476771 9.456894820948348 0 0 1
1455 182 7 0.0592 10.833834364612162 8.439720551854023 9.516168510741304 0 0 0
884 111 4 0.3986 8.116158160515699 9.742739568418703 11.857804030013705 0 0 0
1383 173 7 0.0592 10.575531219114495 11.796568689109069 10.50922883843479 0 0 0
595 75 3 -0.5896 8.152342491581166 6.0873864635028205 9.223770143820676 0 1 0
2016 252 8 0.4229 12.435692717010213 5.2852384156238 9.920587932950761 0 0 1
1377 173 1 -0.9819 11.256691873574539 12.295917466980846 8.619058770744747 0 0 0
3964 496 4 0.3986 3.5654462714784376 11.29729431169249 11.406365282479829 1 0 0
1449 182 1 -0.9819 11.961285623923992 9.301018134387423 8.067434658525247 0 0 0
2036 255 4 0.3986 11.149822344338368 6.664268530655695 10.843334193875993 0 0 0
5331 667 3 -0.5896 5.633634257447031 4.4185645650817635 9.066115024982558 1 0 0
5269 659 5 0.3986 3.8442708794536857 7.022083308078631 8.409523213319316 1 0 0
1452 182 4 0.3986 11.198182353443938 9.94982537486143 8.216617561352582 0 0 0
881 111 1 -0.9819 7.866929744974462 10.560642532367325 11.261448014327872 0 0 0
882 111 2 0.233 8.026273176620514 11.866051530294321 11.924498269187863 0 0 0
2037 255 5 0.3986 10.80296722905726 5.351265129456241 11.60831955253053 0 0 0
594 75 2 0.233 8.042253715098246 7.390682353826348 8.75895791985263 0 1 0
1384 173 8 0.4229 8.902661678416713 11.075987249255707 8.098952747489353 0 0 0
25 4 1 -0.9819 3.6256570418982363 5.616699044768325 11.808324306529107 0 0 0
1379 173 3 -0.5896 9.476100921661413 10.884333500270834 8.915908505937407 0 0 0
5336 667 8 0.4229 6.431611363230333 4.988663757189884 9.005377951634928 1 0 0
5268 659 4 0.3986 3.673217174811039 5.373477596306982 8.69486859132441 1 0 0
2015 252 7 0.0592 10.907234329496783 3.722895654102787 9.384944744391545 0 0 1
725 91 5 0.3986 7.996018194347791 6.935246632467907 12.267560533303183 0 0 0
3961 496 1 -0.9819 3.5218265745469775 12.281866800481861 11.668657821532737 1 0 0
724 91 4 0.3986 9.620607107306625 6.682255997053565 12.313020663208823 0 0 0
1454 182 6 0.0592 12.288259710092792 7.520167764669548 8.897750999825512 0 0 0
886 111 6 0.0592 8.95731016216338 12.396388018387945 11.667210785696826 0 0 0
69 9 5 0.3986 4.333609439729062 9.522545262514026 8.232281482711903 0 0 1
1166 146 6 0.0592 6.6501960285185255 4.474120691031742 16.803717580369923 0 1 0
97 13 1 -0.9819 5.347112108736079 9.258208395488833 15.851748345006484 0 0 0
26 4 2 0.233 4.650139191530636 5.9466493932039235 12.678986402988828 0 0 0
32 4 8 0.4229 4.850648683573867 5.531068683900802 14.487652784586277 0 0 0
99 13 3 -0.5896 5.474179079925872 11.535733599979103 16.125505763645826 0 0 0
751 94 7 0.0592 9.07384026868807 7.061854351380873 14.542824866117959 0 0 0
1462 183 6 0.0592 11.720178280152602 10.054415733785675 12.879495348226989 0 0 0
745 94 1 -0.9819 9.186357585704513 8.727729593556454 13.417297874628842 0 0 0
3967 496 7 0.0592 3.54674815152478 11.485165867840792 13.459811822825037 1 0 0
2539 318 3 -0.5896 12.436551552880704 4.136779421425029 14.973911927264735 0 1 0
747 94 3 -0.5896 7.196036400621361 7.648096210720026 13.888008890384125 0 0 0
27 4 3 -0.5896 4.127394162426259 5.533660474638916 13.917781984851818 0 0 0
752 94 8 0.4229 6.750547596355216 7.001273037193924 14.444351776574864 0 0 0
2034 255 2 0.233 12.281828453236706 6.423188680599016 12.617321451999683 0 0 0
2543 318 7 0.0592 10.409961109531473 4.607053911537945 14.631782274304149 0 1 0
748 94 4 0.3986 10.102183362108565 8.883536329113184 13.835381681079468 0 0 0
2538 318 2 0.233 11.04352999812276 3.982121207045604 15.276948079287836 0 1 0
727 91 7 0.0592 8.513438642535053 4.7450216754552 12.999826384485923 0 0 0
1161 146 1 -0.9819 5.765103612667321 6.291309054941038 16.17220362423944 0 1 0
102 13 6 0.0592 5.5823963669476715 10.52692296022794 14.337355634641048 0 0 0
98 13 2 0.233 5.956551652829017 10.451255951311813 15.357888228485972 0 0 0
1458 183 2 0.233 11.851112803148208 10.466345697766796 13.879088609063823 0 0 0
1167 146 7 0.0592 7.796238856841759 5.577166258639418 16.14162756560035 0 1 0
1457 183 1 -0.9819 11.65382177129058 9.460320870728912 14.895502787611264 0 0 0
750 94 6 0.0592 8.385264922219616 8.38631824477988 15.399049847691986 0 0 0
1464 183 8 0.4229 11.213193668189069 12.235070758580115 13.696073089948012 0 0 0
746 94 2 0.233 8.483777489694319 7.923900745331573 14.405184079340893 0 0 0
103 13 7 0.0592 7.016620539646331 10.45238702050607 15.325623484901486 0 0 0
1168 146 8 0.4229 6.737047480030033 3.7469534331604244 14.91186381647482 0 1 0
749 94 5 0.3986 8.820624625269438 9.623680726591209 13.519900103430956 0 0 0
101 13 5 0.3986 5.551653242733318 8.505227696134364 15.145358073858738 0 0 0
684 86 4 0.3986 10.80520862636356 11.539283537335503 16.366580088977887 0 0 0
1459 183 3 -0.5896 10.938448867476781 11.466785603457438 14.200355795203645 0 0 0
2039 255 7 0.0592 11.652749270412343 6.592792900496667 13.54640786476283 0 0 0
1460 183 4 0.3986 11.670989360284644 9.885024901213239 15.827440310280219 0 0 0
887 111 7 0.0592 7.959153425386173 11.607478765184045 12.98703519922068 0 0 0
1163 146 3 -0.5896 6.533811202132304 4.6668754821675815 14.819795702933579 0 1 0
1164 146 4 0.3986 6.067990678197647 6.87018622270048 16.941318826545263 0 1 0
1162 146 2 0.233 6.759198351449518 5.2204444864204635 16.060251945135825 0 1 0
757 95 5 0.3986 12.034738789013321 7.412689001379993 16.554111443253717 0 0 0
2542 318 6 0.0592 10.809156353771172 4.256810083930099 16.31226030097653 0 1 0
1165 146 5 0.3986 4.967554365449121 5.7637876401971715 16.455120150711696 0 1 0
687 86 7 0.0592 9.104535079170303 9.647316073545891 16.61030679126342 0 0 0
100 13 4 0.3986 5.90920563163907 9.000057425767398 16.735923267612762 0 0 0
104 13 8 0.4229 5.994370093176412 12.362404132705421 15.874612650583222 0 0 0
30 4 6 0.0592 4.950392970926549 6.9689842531595705 12.69128552276122 0 0 0
4720 590 8 0.4229 3.657221081506523 10.78673172238052 15.690518063513446 1 0 0
95 12 7 0.0592 8.478997589725093 12.420841017333323 15.282664051692716 0 0 0
1461 183 5 0.3986 12.464183503357923 8.878596977967904 14.765609215073527 0 0 0
31 4 7 0.0592 5.5980552023307295 5.464385088751805 12.55251213202843 0 0 0
80 10 8 0.4229 8.846404907927475 7.136318082399873 19.231008919184458 0 0 0
76 10 4 0.3986 6.20949713767533 9.15846304328575 18.903569309546622 0 0 0
683 86 3 -0.5896 8.847203636721432 10.17511685347408 18.53787809265561 0 0 0
73 10 1 -0.9819 6.065942719843136 8.22114168309805 18.658250332762215 0 0 0
685 86 5 0.3986 10.96258002587021 11.759472886400776 17.842196196667988 0 0 0
688 86 8 0.4229 8.519497224268779 9.238893621473036 18.607983620019176 0 0 0
1413 177 5 0.3986 10.073326542335828 10.80254230128962 20.007337114751394 0 0 0
1769 222 1 -0.9819 12.417531257171 4.189922566773412 20.748020979798955 0 1 0
754 95 2 0.233 12.309960121582655 6.2140956673215655 18.068923935711283 0 0 0
678 85 6 0.0592 8.263545935394482 4.382080463407313 18.863714745965517 0 0 0
802 101 2 0.233 6.032131256898552 11.468839411381538 20.509072071770166 0 0 0
5226 654 2 0.233 4.66693139632132 4.663800362150491 20.656808862844255 1 0 0
806 101 6 0.0592 6.912536547252481 11.227375292719486 19.90038998726658 0 0 0
77 10 5 0.3986 5.096295008708147 8.028448717946894 18.97318638873386 0 0 0
686 86 6 0.0592 10.430956936284666 9.389632242047597 17.792648486239116 0 0 0
17 3 1 -0.9819 9.787466151966886 6.2220559095135926 20.838058605996693 0 0 0
758 95 6 0.0592 11.186839913941874 6.154537442386827 18.278454794826743 0 0 0
682 86 2 0.233 9.719171944067819 10.111670116173967 17.43706434065579 0 0 0
74 10 2 0.233 6.973654426050482 7.410913748132731 19.392156984727574 0 0 0
19 3 3 -0.5896 10.792740490217547 8.120863148218547 20.293193106536478 0 0 0
75 10 3 -0.5896 8.210162153832183 7.568243165365677 18.703694663048573 0 0 0
79 10 7 0.0592 7.065639532925908 7.811074357313486 20.404606191016956 0 0 0
24 3 8 0.4229 10.747313893712015 9.042093779582999 20.45075509520717 0 0 0
807 101 7 0.0592 5.32100130197775 11.870527407566119 19.847016121547913 0 0 0
1409 177 1 -0.9819 10.78481835057539 10.83594285654861 20.705476004404108 0 0 0
78 10 6 0.0592 6.480889754496225 6.378352626989296 19.287694147214253 0 0 0
5230 654 6 0.0592 3.5959322381982 4.9252540026404015 20.965855458586123 1 0 0
5231 654 7 0.0592 5.029164766108349 5.51073281204763 20.161962838549464 1 0 0
681 86 1 -0.9819 10.28528407155638 11.422398450100163 17.22981612148155 0 0 0
96 12 8 0.4229 8.315070410785687 12.102923182854433 17.116232486603025 0 0 0
18 3 2 0.233 10.196535138914559 7.500655902656224 21.373082411684326 0 0 0
803 101 3 -0.5896 5.502920931522635 10.393368825067945 21.27453636893166 0 0 0
21 3 5 0.3986 10.51564927424501 5.687343077463377 20.418160108437736 0 0 0
808 101 8 0.4229 4.697215000559497 10.024883640758318 20.860911484886824 0 0 0
85 11 5 0.3986 3.842973663145685 8.655152599406538 16.998260173452287 0 0 0
1412 177 4 0.3986 11.327897268662795 11.685536026742941 20.457182685983508 0 0 0
188 24 4 0.3986 8.781270224379567 10.147306370809948 25.771683844461045 0 0 0
765 96 5 0.3986 8.05584789315717 5.475556350053745 23.926871967562626 0 0 0
1340 168 4 0.3986 12.430633945413991 9.75068231675219 22.20801396769209 0 0 0
5227 654 3 -0.5896 5.433373068695598 4.5606870366630865 21.76741770587761 1 0 0
4569 572 1 -0.9819 5.713407658894993 6.261767279398988 23.9482971130585 1 0 0
1261 158 5 0.3986 9.013103874618938 11.995119666941516 25.28556906418212 0 1 0
763 96 3 -0.5896 10.192036230258744 3.5940165879424715 23.093679813542384 0 0 0
1347 169 3 -0.5896 10.088894170867736 7.755666386541567 25.532257372112273 0 0 0
4570 572 2 0.233 4.66608353622051 7.240314559330649 23.667505882872124 1 0 0
187 24 3 -0.5896 7.519304456887268 11.26026615200539 24.13921629044622 0 0 0
801 101 1 -0.9819 6.371174553203861 12.43649661077789 21.57014697654453 0 0 0
1415 177 7 0.0592 9.717336318743193 12.237471708550785 21.948765348727413 0 0 0
764 96 4 0.3986 9.40859417543286 6.181513542212333 24.492712100293573 0 0 0
185 24 1 -0.9819 7.9200743195311505 9.691304216357242 25.506646158533425 0 0 0
192 24 8 0.4229 7.130823981725076 11.434314958451896 23.2508215770193 0 0 0
4572 572 4 0.3986 5.751174939624017 6.048599261313269 24.987584375410666 1 0 0
4571 572 3 -0.5896 4.827652663256295 7.573625116573298 22.29961400100287 1 0 0
761 96 1 -0.9819 9.105459556059373 5.495894874340645 23.811935133995487 0 0 0
1410 177 2 0.233 10.165546877016896 11.171990274701052 21.92110014604703 0 0 0
1411 177 3 -0.5896 11.082915459570138 10.816042594929403 22.94322775575167 0 0 0
4575 572 7 0.0592 3.7011369913316328 6.757457832542002 23.885450514146786 1 0 0
22 3 6 0.0592 10.947335039805203 7.4434543294077145 22.196974352736188 0 0 0
1259 158 3 -0.5896 10.697438504626485 10.520282890739187 25.84250040820805 0 1 0
186 24 2 0.233 7.719333787439286 9.870497056804084 24.155411433973633 0 0 0
1257 158 1 -0.9819 9.917088952963226 12.475842058360552 25.248184596417154 0 1 0
191 24 7 0.0592 8.634384934822817 9.482872259537647 23.60807566046614 0 0 0
190 24 6 0.0592 6.826766883195667 9.386341173326842 23.70212170968765 0 0 0
762 96 2 0.233 9.837069700100866 4.298876963737272 24.26796458494209 0 0 0
4574 572 6 0.0592 4.721607601372435 8.051090359655502 24.408238162978723 1 0 0
1416 177 8 0.4229 10.799066187471594 11.030763765029699 23.805368282742812 0 0 0
767 96 7 0.0592 10.727767155136373 4.6325370262416445 24.82411975181522 0 0 0
5232 654 8 0.4229 5.593076055849152 5.429775521880196 22.137289862087375 1 0 0
4573 572 5 0.3986 6.4446670506907235 6.896222725819836 23.955718909797266 1 0 0
40 5 8 0.4229 6.604793966484314 11.357134735100463 25.832523928609657 0 0 0
20 3 4 0.3986 9.528961942186788 5.644413065408591 21.648085799042587 0 0 0
4576 572 8 0.4229 4.214095738158996 8.28968736145781 22.086799223925464 1 0 0
766 96 6 0.0592 9.313968080870637 3.7698660665872015 25.009166877255268 0 0 0
831 104 7 0.0592 4.101298237182323 11.394956703586036 23.259206648956983 0 0 0
1352 169 8 0.4229 10.998208803149389 7.849641372907082 25.284517258816 0 0 0
1414 177 6 0.0592 9.34276217266996 10.467548984817483 22.047070661712837 0 0 0
23 3 7 0.0592 9.259885223580994 8.023039760902808 21.585405573214043 0 0 0
1989 249 5 0.3986 5.183705681165762 4.584812733082862 25.225527909217696 0 0 0
189 24 5 0.3986 8.258064697859204 8.765393217112738 25.586906663613426 0 0 0
5084 636 4 0.3986 4.14981902610355 3.6501513656129347 22.59316026740539 1 1 0
1773 222 5 0.3986 11.790542467648812 4.207842759913061 21.54193439243698 0 1 0
1258 158 2 0.233 10.721433283356237 11.859540066007199 26.26820302067704 0 1 0
39 5 7 0.0592 5.5964068528117625 10.200252277253703 27.44177180294899 0 0 0
34 5 2 0.233 4.989807114917488 10.924219718651077 26.892327738880358 0 0 0
1351 169 7 0.0592 10.708115726495574 8.212270932669949 27.409823211187057 0 0 0
837 105 5 0.3986 11.287772741824874 9.10383437521929 29.65844398280532 0 0 0
1494 187 6 0.0592 4.385607676784265 7.895033798748626 28.238610725434057 0 0 0
35 5 3 -0.5896 5.853178560822176 11.78506500440822 26.281083608956138 0 0 0
1987 249 3 -0.5896 6.420585396619998 6.320459508975922 26.661927580549783 0 0 0
1986 249 2 0.233 6.5470425848907645 4.923017339810498 26.83216467593894 0 0 0
1780 223 4 0.3986 5.91937097566808 4.200960129288964 29.021939994276853 0 1 0
1262 158 6 0.0592 10.206383024757791 11.99107627275312 27.230374077561915 0 1 0
1345 169 1 -0.9819 8.707362555192194 7.490390451326939 27.291838793126377 0 0 0
1991 249 7 0.0592 6.821325931073456 4.6869031740750495 27.828828849197812 0 0 0
1495 187 7 0.0592 4.385588630234939 7.881513986217156 26.419228726539867 0 0 0
1985 249 1 -0.9819 5.206499102817586 4.526848083651215 26.323491646560253 0 0 0
1783 223 7 0.0592 8.26123098662516 3.5600793190752578 29.35156655638641 0 1 0
835 105 3 -0.5896 8.985193231434563 10.190654715832098 28.800458469012852 0 0 0
834 105 2 0.233 9.690526351364092 10.259158834663241 29.98128639943606 0 0 0
838 105 6 0.0592 10.369470494268915 11.06083731119676 29.879671879589864 0 0 0
1264 158 8 0.4229 11.424316569814385 10.030263580547302 26.312333413719372 0 1 0
1490 187 2 0.233 3.7775084624941773 7.719528790406016 27.344664904797902 0 0 0
1349 169 5 0.3986 8.542836326182321 7.235842186904172 28.340432932752574 0 0 0
1263 158 7 0.0592 11.708381977053204 12.31633536623104 26.25281334139718 0 1 0
1346 169 2 0.233 10.127564948429162 7.432934214216708 26.905654439596457 0 0 0
37 5 5 0.3986 3.75242523060208 11.212008522691674 28.51325771770291 0 0 0
621 78 5 0.3986 4.938228582615798 9.231202549637587 30.11161440833579 0 1 0
1990 249 6 0.0592 7.272674020011644 4.510790870623833 26.117062511154955 0 0 0
33 5 1 -0.9819 4.142751797152359 11.727051449495892 27.718425048977373 0 0 0
38 5 6 0.0592 4.271036632926657 10.404064115976386 26.205392769087947 0 0 0
1348 169 4 0.3986 8.382712744002749 8.495926241482373 27.269312878413466 0 0 0
833 105 1 -0.9819 10.38657287712736 9.053251815718053 30.166645886672505 0 0 0
1496 187 8 0.4229 4.055701608707247 5.957096770974061 26.89331446778749 0 0 0
1216 152 8 0.4229 8.359206126751394 8.350236546307721 30.31363163092972 0 1 0
840 105 8 0.4229 8.675712339604885 11.051085466903784 28.602279918829005 0 0 0
1350 169 6 0.0592 10.532789651517147 6.471872401157183 27.155339341394413 0 0 0
1777 223 1 -0.9819 6.14782702204966 3.50757821348543 29.754117252167482 0 1 0
1211 152 3 -0.5896 7.666199063791961 7.69173084859681 30.294630268621734 0 1 0
1992 249 8 0.4229 7.2567318354277965 6.634541328936063 26.96591804621929 0 0 0
1988 249 4 0.3986 5.148833592115967 3.5404453462415595 26.38033308486783 0 0 0
1935 242 7 0.0592 10.583511928219153 3.4668779722550838 26.944290968380763 0 1 0
1576 197 8 0.4229 12.050936458716418 10.28318924027979 32.06220557532711 0 0 0
5248 656 8 0.4229 4.020663884884952 8.534781146815591 32.44008259064742 1 0 0
703 88 7 0.0592 12.067893583733255 3.8680762245956752 32.02549346638257 0 0 0
617 78 1 -0.9819 5.250317554714355 8.994710228092359 31.029620403695475 0 1 0
702 88 6 0.0592 11.170716423632019 5.252662379001665 32.382820883368865 0 0 0
1570 197 2 0.233 12.38342657179681 12.117048190845527 32.467389891939106 0 0 0
5748 719 4 0.3986 3.8748856708152246 4.140500359220196 30.53782740045269 1 1 0
5242 656 2 0.233 3.498553633005529 9.429854206123395 34.04773274498612 1 0 0
1272 159 8 0.4229 7.510678288073278 5.636655083820097 34.365956272244404 0 1 0
2143 268 7 0.0592 11.818226674652504 8.011438882697028 34.289887214334186 0 0 0
5176 647 8 0.4229 3.781344407512566 10.483313245294985 30.623046466133715 1 1 0
1357 170 5 0.3986 5.833416859548931 6.29366710282516 34.82337840451708 0 0 0
2138 268 2 0.233 11.380716000789462 7.861606906003428 33.370860544286444 0 0 0
839 105 7 0.0592 9.140134726742964 10.637090136529515 30.803856116096455 0 0 0
1574 197 6 0.0592 11.375520730255122 12.373423472447357 32.738273203616046 0 0 0
619 78 3 -0.5896 4.990807184674358 10.980740095073546 31.927361060697127 0 1 0
1271 159 7 0.0592 7.054665321954102 3.7723580884087413 33.80639472264642 0 1 0
2140 268 4 0.3986 10.636245335533957 9.5056140035562 33.95339307149023 0 0 0
620 78 4 0.3986 5.925626798797258 8.212329298201595 30.867849462479402 0 1 0
1571 197 3 -0.5896 12.388189848834305 11.070311357543247 31.552979521051256 0 0 0
624 78 8 0.4229 5.40552030511939 11.835076671084579 32.14524113642577 0 1 0
1212 152 4 0.3986 6.745747663690992 5.985353333654421 32.101007164660444 0 1 0
2579 323 3 -0.5896 11.80023490584037 3.5261561437253968 34.96245352572834 0 1 0
699 88 3 -0.5896 10.364649443730912 4.168714331219872 30.842342943865148 0 0 0
2141 268 5 0.3986 9.622024360423541 8.623867816246552 33.20646011742745 0 0 0
2139 268 3 -0.5896 12.239793233502663 8.078395120085379 32.421488031073075 0 0 0
623 78 7 0.0592 6.698314373546214 9.871245902323452 32.23782540587148 0 1 0
1213 152 5 0.3986 7.889178495682557 5.07232740433519 31.80836074423867 0 1 0
2137 268 1 -0.9819 10.54481231896978 8.912217207680975 33.15209481525301 0 0 0
1267 159 3 -0.5896 8.310033751832284 5.097260663004148 34.49767003580007 0 1 0
2142 268 6 0.0592 10.870339552654574 6.95121612889352 33.38216156181123 0 0 0
698 88 2 0.233 11.511084436385644 4.6384786868586545 31.547448459442645 0 0 0
618 78 2 0.233 5.974906972514042 10.120913465139326 31.428272517303355 0 1 0
1266 159 2 0.233 8.065310174573838 3.770142166041256 34.30438188466369 0 1 0
1353 170 1 -0.9819 6.499606562054336 7.028819752207889 34.41715969283968 0 0 0
5746 719 2 0.233 3.929618322051617 3.670161234493104 32.54424165696393 1 1 0
5246 656 6 0.0592 4.446403120948141 9.862484052889963 34.125505016474236 1 0 0
1209 152 1 -0.9819 7.276854760110078 5.687904618697414 31.35697906179768 0 1 0
1215 152 7 0.0592 8.522103929290218 7.295989790477325 32.08377697058458 0 1 0
5750 719 6 0.0592 4.900879170587017 4.058085227366638 32.640674958564496 1 1 0
622 78 6 0.0592 6.602368301819582 10.513461754891589 30.563581042291457 0 1 0
1210 152 2 0.233 8.217597903139943 6.758427125224864 31.18828159108955 0 1 0
1356 170 4 0.3986 6.016661746410039 7.799581694686692 33.936816599966185 0 0 0
704 88 8 0.4229 9.951025674438261 3.735470112340983 31.575669857374645 0 0 0
697 88 1 -0.9819 12.380167947917403 5.319127700865272 30.669270606930112 0 0 0
836 105 4 0.3986 10.63520472158147 8.973409717077493 31.152153612513068 0 0 0
1214 152 6 0.0592 9.109281549427708 6.3913713134217724 30.76797334472522 0 1 0
701 88 5 0.3986 12.067057359482952 6.249529291882084 30.59994854487178 0 0 0
1781 223 5 0.3986 6.2269642933280664 4.213519214798492 30.519742508585654 0 1 0
716 90 4 0.3986 8.007573791478805 5.098899992979914 36.67626606291023 0 0 0
645 81 5 0.3986 6.814321892608865 10.564648891033885 36.37811309578125 0 1 0
1354 170 2 0.233 6.88451888822935 7.738772235731303 35.556981095722726 0 0 0
642 81 2 0.233 5.3109835723082455 10.138681106705373 37.622201230898185 0 1 0
720 90 8 0.4229 9.614360777886208 6.639638800906918 39.28760348897483 0 0 0
135 17 7 0.0592 8.675714377911042 10.11724937773253 37.632211891172894 0 0 0
580 73 4 0.3986 5.173731032597954 4.508106361816702 37.03113241830053 0 1 -1
2577 323 1 -0.9819 10.643191970854055 5.253185569656968 35.974423314462264 0 1 0
129 17 1 -0.9819 10.091675212385802 9.008998504980886 36.63146388924741 0 0 0
131 17 3 -0.5896 10.04036335110374 11.300214758464776 36.679718509885774 0 0 0
643 81 3 -0.5896 6.040925543903107 9.396642602893419 38.53182824006181 0 1 0
133 17 5 0.3986 11.057830872390618 8.865237109698985 36.4766613967446 0 0 0
1355 170 3 -0.5896 7.642687339209947 8.824649496650334 35.050262340791946 0 0 0
136 17 8 0.4229 9.603969930065086 12.074016251765176 37.13658532636062 0 0 0
132 17 4 0.3986 9.742958995595647 8.144437603721144 37.109485334407864 0 0 0
2583 323 7 0.0592 11.67783353170421 3.865636240820249 37.105743380311864 0 1 0
1877 235 5 0.3986 9.472941863928813 3.6110265743661074 38.761006356189 0 1 -1
646 81 6 0.0592 4.940730420101628 9.477841719431364 36.83063705807662 0 1 0
644 81 4 0.3986 5.739791450111708 11.724109435333357 36.38715808599276 0 1 0
577 73 1 -0.9819 5.31739735411597 4.190102625757515 36.07941802826079 0 1 -1
714 90 2 0.233 8.018903891950064 5.722262233525425 38.64256250611655 0 0 0
1358 170 6 0.0592 7.439288726943669 7.161694804968085 36.285327918049376 0 0 0
648 81 8 0.4229 5.4453260950688165 8.7261654507099 38.92593459090836 0 1 0
130 17 2 0.233 9.785365305247167 10.172132950962219 37.501805313501876 0 0 0
134 17 6 0.0592 10.251735108932696 10.16271321238992 38.51150935652373 0 0 0
641 81 1 -0.9819 6.248814980315858 11.072197328018387 37.00169429887909 0 1 0
1360 170 8 0.4229 8.37781141738933 8.901221554317496 35.60775541990704 0 0 0
647 81 7 0.0592 4.430030898554491 10.486284762154742 38.14634476810126 0 1 0
717 90 5 0.3986 7.608860422233484 4.017358799015488 37.545185441076626 0 0 0
715 90 3 -0.5896 9.108820603660021 6.672869160319953 38.500290089853344 0 0 0
719 90 7 0.0592 6.96927848822816 6.094699643408392 38.525539741141074 0 0 0
854 107 6 0.0592 11.848078418653152 7.597243782001182 38.13997714717628 0 0 0
581 73 5 0.3986 4.479438169600736 4.518005187298265 35.653788556593156 0 1 -1
713 90 1 -0.9819 8.283288009643613 4.794835302610267 37.581165125561895 0 0 0
2578 323 2 0.233 11.114165449631843 3.89916569891762 36.124141794886484 0 1 0
2580 323 4 0.3986 9.949377507111302 5.2508789185634335 36.73497529345692 0 1 0
856 107 8 0.4229 12.028465496707728 6.132649999181014 36.20119761354703 0 0 0
4552 569 8 0.4229 7.192482761211338 10.901815609182357 39.14706219487749 1 0 -1
1359 170 7 0.0592 5.989590452774285 8.10229485054553 35.90953510864873 0 0 0
59 8 3 -0.5896 4.304715513949454 6.837026259568108 37.750394548608284 0 0 0
1437 180 5 0.3986 11.69920288269146 12.188685417105155 37.45644105815574 0 0 0
64 8 8 0.4229 4.019459035326885 6.793185617105788 36.827136684696875 0 0 0
2581 323 5 0.3986 9.993257034638638 5.1805992980011215 35.18055190047866 0 1 0
1438 180 6 0.0592 12.393725456531861 10.460480365088372 39.15067817311938 0 0 0
5193 650 1 -0.9819 7.374191458331694 16.948117601976225 3.5444899467187074 1 0 0
791 99 7 0.0592 9.009909397821712 13.38332552483461 6.743794736941739 0 0 1
5195 650 3 -0.5896 5.331385215657255 16.11298417915945 3.5594505181238043 1 0 0
1516 190 4 0.3986 7.038099755259512 17.195703747851404 5.617483468107867 0 0 0
2091 262 3 -0.5896 12.354334274124056 19.633898448004775 7.420615209155361 0 0 0
2090 262 2 0.233 12.201839380303365 18.839911116319122 6.2720083974999925 0 0 0
289 37 1 -0.9819 7.450840486933914 20.113969017895272 4.120089535433223 0 0 0
880 110 8 0.4229 4.791578591673117 17.581935739341482 4.79534467467671 0 0 0
789 99 5 0.3986 8.292226617026468 14.353847996702452 4.662419143368201 0 0 1
1447 181 7 0.0592 11.736090254877464 16.77909652452522 4.235145076635234 0 0 0
2094 262 6 0.0592 11.497924403889058 17.95757990931254 6.35081831092853 0 0 0
2095 262 7 0.0592 11.907942849341271 19.489425412927837 5.416306500822891 0 0 0
1448 181 8 0.4229 11.19638074849469 14.395251513002261 4.455095896369578 0 0 0
1519 190 7 0.0592 8.61847905870841 18.212499736309617 6.027343123508338 0 0 0