LAMMPS data file via write_data, version 29 Aug 2024, timestep = 1000000, units = real

6174 atoms
18 atom types
5831 bonds
17 bond types
10633 angles
31 angle types
11319 dihedrals
33 dihedral types
3430 impropers
10 improper types

2.203515087747828 42.7964849122484 xlo xhi
2.203515087747828 42.7964849122484 ylo yhi
2.203515087747828 42.7964849122484 zlo zhi

Masses

1 12.011
2 15.999
3 12.011
4 12.011
5 12.011
6 12.011
7 1.008
8 1.008
9 1.008
10 1.008
11 1.008
12 1.008
13 1.008
14 1.008
15 1.008
16 1.008
17 1.008
18 1.008

Pair Coeffs # lj/cut/coul/long

1 0.066 3.5
2 0.14 2.9
3 0.066 3.5
4 0.066 3.5
5 0.066 3.5
6 0.066 3.5
7 0.03 2.5
8 0.03 2.5
9 0.03 2.5
10 0.03 2.5
11 0.03 2.5
12 0.03 2.5
13 0.03 2.5
14 0.03 2.5
15 0.03 2.5
16 0.03 2.5
17 0.03 2.5
18 0.03 2.5

Bond Coeffs # harmonic

1 320 1.41
2 320 1.41
3 268 1.529
4 268 1.529
5 268 1.529
6 340 1.09
7 340 1.09
8 340 1.09
9 340 1.09
10 340 1.09
11 340 1.09
12 340 1.09
13 340 1.09
14 340 1.09
15 340 1.09
16 340 1.09
17 340 1.09

Angle Coeffs # harmonic

1 60 109.5
2 50 109.5
3 50 109.5
4 50 109.5
5 35 109.5
6 35 109.5
7 35 109.5
8 37.5 110.7
9 37.5 110.7
10 37.5 110.7
11 37.5 110.7
12 37.5 110.7
13 37.5 110.7
14 37.5 110.7
15 37.5 110.7
16 37.5 110.7
17 33 107.8
18 33 107.8
19 33 107.8
20 33 107.8
21 33 107.8
22 33 107.8
23 33 107.8
24 58.35 112.7
25 33 107.8
26 58.35 112.7
27 33 107.8
28 33 107.8
29 33 107.8
30 33 107.8
31 58.35 112.7

Dihedral Coeffs # opls

1 0.65 -0.25 0.67 0
2 0 0 0.76 0
3 0 0 0.468 0
4 0 0 0.468 0
5 0 0 0.468 0
6 0 0 0.3 0
7 0 0 0.3 0
8 0 0 0.468 0
9 0 0 0.3 0
10 0 0 0.3 0
11 0.65 -0.25 0.67 0
12 0 0 0.3 0
13 0 0 0.76 0
14 0 0 0.3 0
15 0 0 0.468 0
16 0 0 0.3 0
17 0 0 0.3 0
18 0 0 0.3 0
19 0 0 0.3 0
20 0 0 0.468 0
21 0 0 0.468 0
22 0 0 0.3 0
23 0 0 0.3 0
24 0 0 0.3 0
25 0 0 0.3 0
26 0 0 0.3 0
27 0.65 -0.25 0.67 0
28 0 0 0.76 0
29 0 0 0.3 0
30 0 0 0.468 0
31 0 0 0.3 0
32 0 0 0.3 0
33 0 0 0.468 0

Improper Coeffs # cvff

1 0 -1 2
2 0 -1 2
3 0 -1 2
4 0 -1 2
5 0 -1 2
6 0 -1 2
7 0 -1 2
8 0 -1 2
9 0 -1 2
10 0 -1 2

Atoms # full

26 2 8 0.03 6.012944787142045 3.4068618100465926 5.35367211579618 1 -2 1
5444 303 8 0.03 4.593830498616509 9.773781454813214 4.3720345277843045 1 -1 1
31 2 13 0.06 4.579052915625015 2.679726020265715 3.205264422715833 1 -2 1
4246 236 16 0.06 5.978558146881477 11.272179295957834 6.670143920669681 -1 -1 2
5450 303 14 0.06 6.061470253722037 6.270674546163249 2.6558131138883887 1 -1 1
4463 248 17 0.06 2.721099594446756 6.7377524159026665 7.245592008239813 1 -1 2
19 2 1 0.11 6.728273855273471 2.5712897305919027 5.379164576269192 1 -2 1
5449 303 13 0.06 6.292234004056059 7.734819002322509 3.528190072624391 1 -1 1
4448 248 2 -0.4 2.8456371265957885 7.018004833320576 9.991711239418155 1 -1 2
245 14 11 0.06 5.093121965722515 11.043348829174162 11.205952296138143 0 -1 1
244 14 10 0.06 3.367627523126346 11.160708737439693 11.259361269833633 0 -1 1
4172 232 14 0.06 4.311432410846561 2.7437222049578884 10.745695547198672 1 0 0
4248 236 18 0.06 6.9320536170186395 11.29608195270169 8.11205085254105 -1 -1 2
5442 303 6 -0.18 3.5048737497047426 5.925977932121539 2.9267050170927793 1 -1 1
4449 248 3 0.2 3.9497265606625342 6.951747519781237 9.108549879365885 1 -1 2
5437 303 1 0.11 4.37662160973856 8.963212688073416 5.104358888447293 1 -1 1
5443 303 7 0.03 3.685681334841016 9.389540820743516 5.840963298684161 1 -1 1
4462 248 16 0.06 4.5231700955513165 5.909526430553077 7.265370730547099 1 -1 2
4165 232 7 0.03 2.632896674170167 4.147525570618084 10.228856329519191 1 0 0
4452 248 6 -0.18 3.6006000297718295 6.139466322198917 7.790064821558175 1 -1 2
238 14 4 -0.18 4.27327602865528 11.402944733632117 11.808252804739459 0 -1 1
32 2 14 0.06 3.8847328787470063 3.0605604435518883 4.5962530715873005 1 -2 1
251 14 17 0.06 5.398564761346695 8.894319300494313 12.032960222679968 0 -1 1
4458 248 12 0.06 4.550571978292347 8.910688525835116 9.68113677333139 1 -1 2
4461 248 15 0.06 4.814526514962758 5.197091393789828 10.045102877901844 1 -1 2
4451 248 5 -0.18 5.112257259680765 6.241502967492253 9.87155387465888 1 -1 2
4459 248 13 0.06 5.242977114618977 6.799799688653309 10.82488423097913 1 -1 2
4464 248 18 0.06 3.1884001715996773 5.181211326551578 7.975040881712382 1 -1 2
5441 303 5 -0.18 5.658280435086454 6.860011710112694 3.478984365343949 1 -1 1
4450 248 4 -0.18 4.397494425599336 8.36050076192014 8.702196316503386 1 -1 2
5447 303 11 0.06 4.366921363580852 9.212841885753498 2.3308319156915966 1 -1 1
5453 303 17 0.06 2.4424138472698247 6.1714126541111405 2.804682562569411 1 -1 1
5454 303 18 0.06 3.602727497454408 5.129036770409131 3.703368709463887 1 -1 1
4456 248 10 0.06 3.662159996602601 8.885485051929745 8.084893766130126 1 -1 2
5413 301 13 0.06 7.093221347890611 9.028910664002584 10.208972192434711 1 1 0
5438 303 2 -0.4 3.7119140514607434 7.775865332129712 4.5170758651404235 1 -1 1
4460 248 14 0.06 6.150827756958606 6.21119919639843 9.356567394181752 1 -1 2
4457 248 11 0.06 5.341236189282819 8.286663045227149 8.14713248445227 1 -1 2
4236 236 6 -0.18 6.749400322234369 11.80038397739835 7.156831833308452 -1 -1 2
5439 303 3 0.2 4.205207510198056 7.268242337014465 3.2656083903180155 1 -1 1
5866 326 16 0.06 3.6735804269297176 12.216650829647698 6.039150999655043 3 -1 2
5445 303 9 0.03 5.328688189533325 8.67226716631816 5.533240193341163 1 -1 1
5451 303 15 0.06 5.835697995652517 6.326872496116997 4.38355842338347 1 -1 1
3960 220 18 0.06 4.082395720091105 4.569177386653742 12.227002207487228 3 -3 -2
3955 220 13 0.06 3.631243331558595 2.5883115636049414 15.428581886988665 3 -3 -2
237 14 3 0.2 4.4431756715381105 10.586885480725822 13.124791298883052 0 -1 1
250 14 16 0.06 4.915526958367122 8.395183542029216 13.651530682938986 0 -1 1
235 14 1 0.11 3.192355494163391 10.123759171444895 15.173763317856269 0 -1 1
3959 220 17 0.06 4.07313183662247 5.746511177797943 13.560650224191336 3 -3 -2
241 14 7 0.03 3.2262980222421653 9.10477926476809 15.030605667910267 0 -1 1
3957 220 15 0.06 3.105394916672456 4.179713521356568 15.04046621414443 3 -3 -2
1412 79 8 0.03 3.1862540833870976 7.257187438898022 21.722088138566157 -1 -1 0
248 14 14 0.06 6.047897233213597 10.44474757396127 14.55991618118603 0 -1 1
252 14 18 0.06 3.6832401003542268 8.565125012191002 12.422967611378871 0 -1 1
3956 220 14 0.06 2.902018944488987 2.861529829031901 13.837225322109912 3 -3 -2
1405 79 1 0.11 4.109959874047246 6.764249652417731 21.440765544116307 -1 -1 0
1408 79 4 -0.18 3.5045609630364956 6.855640936272495 17.71448709939061 -1 -1 0
1411 79 7 0.03 4.1646812978491985 5.779207803546786 21.721618300406803 -1 -1 0
240 14 6 -0.18 4.634844636039727 9.090538422379804 12.792596404550164 0 -1 1
5507 306 17 0.06 6.597714856962487 10.873606650952144 19.697458119146845 1 -1 4
5497 306 7 0.03 6.400330236614488 7.702419558015969 18.80779327889699 1 -1 4
1407 79 3 0.2 3.0336336460737403 6.617558103031134 19.148933874047803 -1 -1 0
3899 217 11 0.06 3.702551227804303 11.92271887053562 20.104351272622875 0 1 1
1413 79 9 0.03 4.889205553490254 7.1743413476909765 22.035079461062217 -1 -1 0
4063 226 13 0.06 5.311373417158215 3.3925819721667874 21.36769545113703 0 0 -1
5491 306 1 0.11 6.750669734608714 8.448795947806456 18.087482900086428 1 -1 4
239 14 5 -0.18 5.587097965767916 11.179551154272609 13.951420368369607 0 -1 1
1415 79 11 0.06 4.246160910376284 6.185698129816879 17.252029442474868 -1 -1 0
5499 306 9 0.03 6.02120225462556 9.275477115259491 18.08236241195322 1 -1 4
4053 226 3 0.2 7.155868137549543 2.603729765550377 20.645905185104834 0 0 -1
3947 220 5 -0.18 3.5485829491106777 3.3100295100829467 14.637088218985957 3 -3 -2
3944 220 2 -0.4 5.6832430330141985 4.141604100638894 15.18663130601109 3 -3 -2
4055 226 5 -0.18 6.2347218802156315 2.9937105453126573 21.777477210303907 0 0 -1
1406 79 2 -0.4 4.178693453478243 6.8793834780093785 20.027390254203798 -1 -1 0
1414 79 10 0.06 2.6771343638443077 7.002287793200746 17.013964132300323 -1 -1 0
3952 220 10 0.06 6.449505860105446 2.678849270172232 12.999533397361793 3 -3 -2
1419 79 15 0.06 3.481115580686838 4.545517822091244 19.103081828402775 -1 -1 0
249 14 15 0.06 5.2027409705624015 11.97895224579734 14.57301107343246 0 -1 1
3943 220 1 0.11 6.815583022977328 4.939900442987023 14.907854025826623 3 -3 -2
243 14 9 0.03 4.039574456955931 10.413375759850549 15.75622732021352 0 -1 1
1416 79 12 0.06 3.996305478255639 7.833704288510741 17.75664035887906 -1 -1 0
3893 217 5 -0.18 2.5835651411198928 10.412858038626771 21.917274565974324 0 1 1
3945 220 3 0.2 4.872996038703127 3.717488182838472 14.042020270128923 3 -3 -2
3948 220 6 -0.18 4.699132902117688 4.889787892897691 13.038849238080143 3 -3 -2
3901 217 13 0.06 3.632885841593664 10.581201002886369 22.111397105217687 0 1 1
1409 79 5 -0.18 2.6042816821483417 5.1336442647307186 19.3395918350677 -1 -1 0
5500 306 10 0.06 6.744267903178062 8.687235316102168 21.040730358004026 1 -1 4
3946 220 4 -0.18 5.526757543545194 2.3904412000208093 13.557452437092635 3 -3 -2
3958 220 16 0.06 5.673085160752169 5.143763042820217 12.61023836527075 3 -3 -2
5498 306 8 0.03 6.8232489485288434 8.110592305417336 17.04158184321986 1 -1 4
4058 226 8 0.03 6.410951076777127 5.395368624478004 20.485912373525068 0 0 -1
3898 217 10 0.06 2.4084115250923244 11.393095923968271 19.12274280874352 0 1 1
3892 217 4 -0.18 2.6181868089369753 12.012207339899453 19.977292601564557 0 1 1
236 14 2 -0.4 3.2128834968717577 10.63544570260821 13.858072638033674 0 -1 1
3950 220 8 0.03 6.402575183900188 5.939655482507192 14.723197076891763 3 -3 -2
4059 226 9 0.03 5.973644968308152 4.38617144745216 19.04318924026521 0 0 -1
4051 226 1 0.11 6.768423213921698 4.867010367844088 19.63415077709104 0 0 -1
247 14 13 0.06 6.37391369005783 11.619114918047561 13.320282876049896 0 -1 1
3902 217 14 0.06 2.501855582263205 9.500017332810044 21.362919216603117 0 1 1
1421 79 17 0.06 2.221158629600126 8.580378200226068 19.40590340189038 -1 -1 0
4067 226 17 0.06 5.465264488830945 2.260599595974478 19.195826380916102 0 0 -1
242 14 8 0.03 2.2473050081406445 10.516782154788443 15.56077079176055 0 -1 1
4064 226 14 0.06 6.621704986095639 3.7263396215054083 22.48456097741677 0 0 -1
3123 174 9 0.03 3.3937646336302207 2.3791024530779397 19.987224758062613 2 0 2
1418 79 14 0.06 2.2771109594723673 5.033116342616239 20.401441985133463 -1 -1 0
3500 195 8 0.03 6.474081147271452 12.341869807607816 17.876238713988833 -2 0 2
2439 136 9 0.03 6.174008082520853 4.299309776412564 28.55279160423708 0 4 0
428 24 14 0.06 6.953491222089386 8.605760084065757 23.884175347530185 1 -1 -2
420 24 6 -0.18 5.456019403337022 11.158172277509955 25.721019501414222 1 -1 -2
429 24 15 0.06 5.275559732724701 8.931948173357586 23.670692456244577 1 -1 -2
2431 136 1 0.11 6.881536740426032 4.474847498889698 27.719572889889495 0 4 0
2131 119 7 0.03 4.271496665443726 4.010260512980858 29.92726254486296 0 1 1
2140 119 16 0.06 2.817136679479464 7.373582713776426 31.280331740409217 0 1 1
2126 119 2 -0.4 4.14357546737544 6.019470971757103 29.306925220120302 0 1 1
2130 119 6 -0.18 2.3132294032492764 7.3147555863022395 30.306893585863907 0 1 1
3643 203 7 0.03 4.659205053944813 3.7405241318917426 24.24404626280962 1 1 0
430 24 16 0.06 4.497057549621163 11.26587096818321 25.198875164618315 1 -1 -2
2133 119 9 0.03 2.8826078106767707 4.835227149662725 30.56868705308254 0 1 1
417 24 3 0.2 6.472556189227283 10.403012369814645 24.833313558516906 1 -1 -2
2136 119 12 0.06 4.8724398497669466 8.394579130420667 28.014808926239386 0 1 1
427 24 13 0.06 5.9744355841831736 8.340809193207809 25.269090981711457 1 -1 -2
2135 119 11 0.06 3.8646820968864932 9.405264094619817 29.132558507158954 0 1 1
2127 119 3 0.2 3.319539484684883 7.191587036864607 29.119379836794327 0 1 1
2139 119 15 0.06 3.321136558902942 7.144823515652433 26.91663178596373 0 1 1
419 24 5 -0.18 6.114916641842074 8.948146908316723 24.382903367806296 1 -1 -2
421 24 7 0.03 7.076573738098134 9.00230503782921 27.090123992797057 1 -1 -2
424 24 10 0.06 6.085038012986722 11.419276628128431 22.951124549483517 1 -1 -2
2132 119 8 0.03 2.8756355769400477 4.434931366288415 28.888833803100805 0 1 1
3637 203 1 0.11 4.488340435498548 2.8339920437524286 24.881014222752913 1 1 0
418 24 4 -0.18 6.873369413213563 11.268858483350524 23.642917023906794 1 -1 -2
2128 119 4 -0.18 4.326797126601682 8.458810207805959 29.024193441632292 0 1 1
432 24 18 0.06 5.206957241215477 10.695927168520457 26.683511049223014 1 -1 -2
2125 119 1 0.11 3.550678939174001 4.739445822782866 29.701108066594582 0 1 1
2134 119 10 0.06 5.072232872962529 8.242870817345782 29.785139703338388 0 1 1
3645 203 9 0.03 4.762810035513847 2.989720031636097 25.929629184232276 1 1 0
2438 136 8 0.03 6.286289980080899 4.5736451880795315 26.795021352145426 0 4 0
2129 119 5 -0.18 2.5429436006464354 7.17682678582919 27.722783719852163 0 1 1
431 24 17 0.06 5.959279949239031 12.175981522819441 25.87429969204145 1 -1 -2
2447 136 17 0.06 6.862837054854575 5.805656696535227 30.67741485724809 0 4 0
3895 217 7 0.03 2.761814581509273 12.12700522962361 24.049044681854866 0 1 1
426 24 12 0.06 6.977938365830613 12.33171665808938 23.928748363536958 1 -1 -2
2819 157 11 0.06 5.650051560821362 8.335752682637384 32.2666136190768 0 0 0
2812 157 4 -0.18 6.4150443690482 8.628881183428561 32.98230911548154 0 0 0
929 52 11 0.06 6.399583313337579 5.203256887924624 40.75183484176736 0 3 1
750 42 12 0.06 4.3393884189592455 2.6856710253027356 38.430514003437125 1 2 2
5440 303 4 -0.18 3.802888269493203 8.307694303002222 42.773387841369356 1 -1 0
2031 113 15 0.06 2.4124096852001187 6.291710540912614 34.954587466348144 2 0 -3
2255 126 5 -0.18 2.522938357496251 3.061780615088452 41.112178053925845 2 0 1
2051 114 17 0.06 2.4536403431913745 11.854032094744337 38.38065906791364 0 1 1
6107 340 5 -0.18 5.375650591904205 11.548496114298223 39.70758126248069 1 2 -1
928 52 10 0.06 5.5438066816605325 5.089350455173775 39.19379975512432 0 3 1
2811 157 3 0.2 6.185812919479892 7.8230682737959265 34.295147886392556 0 0 0
2823 157 15 0.06 6.9115661881005455 5.791381378519175 34.85573002983743 0 0 0
6117 340 15 0.06 4.939233608634451 11.21371073888535 40.65344266828447 1 2 -1
2824 157 16 0.06 4.579392800188499 7.16967604263767 35.72689779687694 0 0 0
2826 157 18 0.06 4.196568090354292 8.813584163141739 34.93511012646188 0 0 0
739 42 1 0.11 7.181677329490811 2.459730211666472 35.66544670561507 1 2 2
2263 126 13 0.06 3.178281166687694 3.9285866570770565 40.909357889384765 2 0 1
749 42 11 0.06 3.408395777908561 3.098935851656317 36.90724827933806 1 2 2
2822 157 14 0.06 6.3622229628223295 5.948329549981433 33.238239526641436 0 0 0
932 52 14 0.06 6.076466457910605 7.554789289348928 40.35027841604828 0 3 1
930 52 12 0.06 7.042017701635944 4.1969611452730735 39.53410175491274 0 3 1
2265 126 15 0.06 2.380454531101078 2.9514111490450725 42.15560129084304 2 0 1
2818 157 10 0.06 6.24637049967891 9.678259997236047 33.163346327400255 0 0 0
740 42 2 -0.4 6.021060748405173 2.772007131642157 36.476135985672485 1 2 2
923 52 5 -0.18 6.472440071000135 7.590515519596217 39.29702922131362 0 3 1
2815 157 7 0.03 5.949604296509101 9.738126020210576 36.276045864669626 0 0 0
933 52 15 0.06 5.6434502821555235 7.63323087249559 38.597349723368424 0 3 1
2814 157 6 -0.18 4.709034898992776 7.813739882103391 34.82019173760334 0 0 0
6115 340 13 0.06 5.527559239406973 10.57969987344865 39.152025951575936 1 2 -1
6116 340 14 0.06 4.7084074534710005 12.193415941163678 39.18402774982995 1 2 -1
2044 114 10 0.06 2.858206338219203 9.608482957949057 39.578151282542734 0 1 1
922 52 4 -0.18 6.558416943907505 5.162372035726022 39.68888189440186 0 3 1
5446 303 10 0.06 4.082195575793261 7.96330367890268 41.79629364195358 1 -1 0
2046 114 12 0.06 2.7789387592890917 10.630208434145661 40.91749298161659 0 1 1
2813 157 5 -0.18 6.756103894486234 6.464354453313659 34.06841297173337 0 0 0
2810 157 2 -0.4 7.061334688261787 8.28199867962644 35.32568571040669 0 0 0
742 42 4 -0.18 3.950260500918361 2.3278305315082966 37.49279962233746 1 2 2
2825 157 17 0.06 4.152874300790827 7.212688305380347 34.08772514193166 0 0 0
934 52 16 0.06 6.850037739047602 6.013504563505121 36.99281147628089 0 3 1
5452 303 16 0.06 3.8284528800353343 5.4489766892792275 42.54586795560077 1 -1 0
6105 340 3 0.2 6.674675633557005 12.311481262817216 39.8944961664304 1 2 -1
2809 157 1 0.11 6.943018286517531 9.56777450952164 35.812923955164536 0 0 0
931 52 13 0.06 7.004429926441548 8.51243845205477 39.26600734672621 0 3 1
2816 157 8 0.03 7.135214168829391 10.224854615270804 34.963737498630906 0 0 0
5448 303 12 0.06 2.7491733107472993 8.495649759272553 42.779434727099 1 -1 0
4870 271 10 0.06 6.132872037512875 17.397494355375215 10.89557848814348 -1 2 0
3086 172 8 0.03 3.3556534800832036 13.469374956371201 3.1302119538240576 0 0 1
997 56 7 0.03 5.75627975933029 18.26423892647317 4.709331194550369 -1 0 2
4874 271 14 0.06 4.767344856452323 15.06162199894349 10.805986156905213 -1 2 0
995 56 5 -0.18 2.5665032066788678 18.939125314457335 6.772365795908604 -1 0 2
1002 56 12 0.06 3.3783262856129426 22.05110844492559 5.435643167892669 -1 0 2
1008 56 18 0.06 4.2970361695057715 21.78535193401617 7.630005377030336 -1 0 2
4864 271 4 -0.18 7.012539138114042 16.71585266587899 10.741401824895268 -1 2 0
4867 271 7 0.03 5.968369630343279 16.57393860286478 6.749922143099398 -1 2 0
4875 271 15 0.06 5.998901305758757 14.145517759636848 11.66192173287087 -1 2 0
4863 271 3 0.2 6.621246674234836 15.486454435950188 9.915483389666935 -1 2 0
5867 326 17 0.06 3.1676314852300003 12.956358336719154 7.470904626995752 3 -1 2
996 56 6 -0.18 3.89567178714268 20.748760829046372 7.793762107009254 -1 0 2
246 14 12 0.06 4.252517934934522 12.478335074350152 11.97149231104897 0 -1 1
998 56 8 0.03 4.1722126114935865 18.925889332282864 4.22578695248479 -1 0 2
4865 271 5 -0.18 5.724488205007713 14.556578372947612 10.644599105471166 -1 2 0
993 56 3 0.2 3.569407492022116 20.09140897401819 6.493052770963899 -1 0 2
992 56 2 -0.4 4.77007912697846 19.675727707190937 6.01088249177103 -1 0 2
2599 145 7 0.03 6.693555850338146 17.980418861373593 2.433368294049706 3 2 1
2609 145 17 0.06 5.390056611296966 22.33137440662727 2.4052941066658624 3 2 1
994 56 4 -0.18 2.8828486727592013 21.126726822183564 5.590321161595903 -1 0 2
3084 172 6 -0.18 2.922690547682667 15.968976066736033 3.2349828186523926 0 0 1
1007 56 17 0.06 3.041439546644276 20.744844467228656 8.486611314080395 -1 0 2
4861 271 1 0.11 6.485842093345213 16.56611287915002 7.677579201694058 -1 2 0
3094 172 16 0.06 2.554590125646669 15.276274390876313 3.9930588397288513 0 0 1
3096 172 18 0.06 3.963020076503058 16.101478121208153 3.3246980730735105 0 0 1
1006 56 16 0.06 4.729182385092308 20.1698964604914 8.283653975440995 -1 0 2
999 56 9 0.03 4.421639090343156 17.60884167399223 5.372100989369523 -1 0 2
3095 172 17 0.06 2.284506887681507 16.841194546861672 3.365095456886479 0 0 1
1004 56 14 0.06 2.2744471086910862 18.45915847026286 5.882163401194591 -1 0 2
4862 271 2 -0.4 5.901293610574632 15.862663359162111 8.72594881965476 -1 2 0
2610 145 18 0.06 5.546064811704725 21.01314923286994 3.544446019967496 3 2 1
4872 271 12 0.06 7.177773995266535 16.484916168842815 11.823476223587932 -1 2 0
1003 56 13 0.06 2.888605881616342 18.25410554262323 7.558065567824397 -1 0 2
4873 271 13 0.06 5.619360382050319 13.75316165868849 9.963553954103208 -1 2 0
991 56 1 0.11 4.772546721978932 18.57973257944112 5.055134220061577 -1 0 2
1001 56 11 0.06 2.592915289006633 20.636663882518498 4.620618858101721 -1 0 2
4869 271 9 0.03 6.725558952373358 17.511324753469573 8.122987491284036 -1 2 0
2598 145 6 -0.18 5.7241110020409085 21.33267602653372 2.5109357844249014 3 2 1
4247 236 17 0.06 6.186259885775375 12.69099436157507 7.47907229970724 -1 -1 2
5868 326 18 0.06 3.1388175547740538 13.942099608373876 6.070302443247536 3 -1 2
5856 326 6 -0.18 2.940124689127229 12.975234046683026 6.358788538629013 3 -1 2
4241 236 11 0.06 6.768579843450028 12.669776839714135 4.599222956452257 -1 -1 2
3999 223 3 0.2 4.5062208858785535 22.47136170725903 14.320439217407749 -1 2 -1
3494 195 2 -0.4 7.009264653029513 13.303633547416426 16.104318549735297 -2 0 2
1877 105 5 -0.18 4.480467907733267 22.482131431118653 19.80779577185312 0 0 3
4604 256 14 0.06 2.722096097274388 14.904477336844826 13.788168750015624 3 1 2
4598 256 8 0.03 5.620610098399188 16.482104020798847 15.99247355803858 3 1 2
2994 167 6 -0.18 5.751489465208725 17.09223956875421 21.654938646445615 2 -1 -1
1881 105 9 0.03 4.820573134055911 19.13926139377103 18.481928877835156 0 0 3
1886 105 14 0.06 4.063971607637964 22.34779979340473 18.75662103422817 0 0 3
4597 256 7 0.03 5.570579968658796 15.472539458760389 14.578174134253889 3 1 2
4596 256 6 -0.18 2.941620055796551 17.10045341665143 16.58728485393485 3 1 2
1890 105 18 0.06 2.8822544742038296 20.877411710934997 21.209167864952033 0 0 3
1873 105 1 0.11 5.586092860141008 19.906554114558688 18.321942277363462 0 0 3
1882 105 10 0.06 6.545861130089476 21.897599350469914 21.658457864607172 0 0 3
4606 256 16 0.06 2.979425556074924 18.182082739766834 16.83058866290972 3 1 2
1880 105 8 0.03 5.309908695550726 20.709587730482188 17.587249848916315 0 0 3
4013 223 17 0.06 3.2031181941338724 22.38901148221382 12.554071764469453 -1 2 -1
4591 256 1 0.11 5.499080870049263 16.48919341093066 14.937980414610571 3 1 2
4593 256 3 0.2 2.972239090370566 16.642000558489514 15.120897473199282 3 1 2
1889 105 17 0.06 2.955129564703292 20.24022952359242 19.688987422681127 0 0 3
1876 105 4 -0.18 5.530315654135869 21.39617876967363 21.77303267592468 0 0 3
4001 223 5 -0.18 5.332163462761414 21.21755441327518 13.899043653015585 -1 2 -1
4599 256 9 0.03 6.399250592147254 17.14035140068846 14.656604554270077 3 1 2
4009 223 13 0.06 4.708856091956335 20.39420677139656 13.447635159962385 -1 2 -1
1875 105 3 0.2 4.901466438202403 21.080429927449064 20.34742805825821 0 0 3
4011 223 15 0.06 6.164523160015911 21.467046546868954 13.263878839108804 -1 2 -1
3998 223 2 -0.4 3.50002314219408 22.094861659332118 15.294820066711544 -1 2 -1
4603 256 13 0.06 3.339619884823902 14.479117454550058 15.285858512706291 3 1 2
4607 256 17 0.06 3.610365215688792 16.49470077616362 17.233617001436656 3 1 2
3004 167 16 0.06 5.208537859385687 17.147774566425895 20.672467568637344 2 -1 -1
4010 223 14 0.06 5.795360277444564 20.802623123067196 14.762198648759414 -1 2 -1
4595 256 5 -0.18 2.657696704407925 15.17996045136204 14.840841618776683 3 1 2
4592 256 2 -0.4 4.244608447029345 17.17364834582193 14.651724241747518 3 1 2
3003 167 15 0.06 4.215537626302368 14.796748861977767 20.754033131897494 2 -1 -1
3499 195 7 0.03 7.074423121891981 14.015410683255842 18.051942885436468 -2 0 2
3005 167 17 0.06 6.736559610526942 17.06753492476971 21.30374152736297 2 -1 -1
1874 105 2 -0.4 5.881106688528817 20.326960305376954 19.660211421623874 0 0 3
1878 105 6 -0.18 3.5872540522848073 20.297770026587454 20.6312507147289 0 0 3
1888 105 16 0.06 3.7332182217667857 19.330999390495222 21.098617780610876 0 0 3
2997 167 9 0.03 2.8363146531359966 17.357697833763257 22.102767930337787 2 -1 -1
2996 167 8 0.03 2.586864430262421 15.606403257852232 22.01243630950164 2 -1 -1
1879 105 7 0.03 6.524940445272402 19.39351925342186 17.919045922523082 0 0 3
3501 195 9 0.03 5.51620085134469 13.752922125010617 17.270427821066228 -2 0 2
2991 167 3 0.2 5.333093515996149 15.80614152752303 22.39466407934995 2 -1 -1
3493 195 1 0.11 6.506212288374565 13.32878896634333 17.418264558069197 -2 0 2
3900 217 12 0.06 2.398189462665416 13.016577272630684 19.803899054489488 0 1 1
2993 167 5 -0.18 4.926982677762425 14.557860974189904 21.55285051938107 2 -1 -1
3001 167 13 0.06 4.591469857449342 13.696851398014303 22.177338633094607 2 -1 -1
3006 167 18 0.06 5.491784518645846 17.940845510629167 22.35537919082467 2 -1 -1
4003 223 7 0.03 2.6044694970061384 20.662309889430066 13.90733594995716 -1 2 -1
3002 167 14 0.06 5.844533943365103 14.201180097338685 21.081850822091965 2 -1 -1
3997 223 1 0.11 2.4590775551337507 21.298318636065844 14.797353905299012 -1 2 -1
1884 105 12 0.06 4.959009738345189 22.239226482952073 22.266807472367237 0 0 3
4602 256 12 0.06 2.2777544557516407 17.49856644003193 13.277791153717265 3 1 2
2614 146 4 -0.18 3.0004687040215154 16.544648640418522 29.1336409591628 1 0 1
4377 244 3 0.2 3.4937425155618222 20.42506949759509 30.817525701988984 1 -3 1
3523 196 13 0.06 4.2456250877454895 13.424218591523783 31.979459528993342 0 0 1
587 33 11 0.06 5.4255330115806775 20.33713700983286 25.55138428838079 0 -2 -2
4390 244 16 0.06 3.5084605173316517 21.935585401233222 32.41381643859152 1 -3 1
593 33 17 0.06 3.2893581034824297 19.11529660251712 23.678289590483164 0 -2 -2
2625 146 15 0.06 4.682890358283672 14.78676191963421 27.598497150297636 1 0 1
591 33 15 0.06 2.231878038682721 18.97677531334154 27.347545127319222 0 -2 -2
4378 244 4 -0.18 4.401752240090916 20.018931312418314 29.63808280609864 1 -3 1
2624 146 14 0.06 4.926085378440941 14.856765917845994 29.435549610779766 1 0 1
2612 146 2 -0.4 2.2693145308280265 14.240181958724277 29.782544457191793 1 0 1
4380 244 6 -0.18 3.939526217552415 21.774016247652305 31.36529304498179 1 -3 1
4385 244 11 0.06 5.436812724730231 19.99395121335327 29.87765582404758 1 -3 1
2615 146 5 -0.18 4.3557168919697355 14.578419115952821 28.5913539926867 1 0 1
2623 146 13 0.06 4.246330284298485 13.509647973120481 28.468127191260873 1 0 1
3520 196 10 0.06 3.783069566258198 16.056320369033735 32.098056566523454 0 0 1
578 33 2 -0.4 2.9977295601995304 21.115212613360686 26.473823743314313 0 -2 -2
594 33 18 0.06 3.725633568776276 20.784095674335983 23.713449787889335 0 -2 -2
579 33 3 0.2 3.24296229549733 19.942399495444704 25.70982733356116 0 -2 -2
2990 167 2 -0.4 4.247576089970796 16.230605260419104 23.304463981360566 2 -1 -1
588 33 12 0.06 5.087429194428072 18.61692806079554 25.624495242910367 0 -2 -2
582 33 6 -0.18 3.07877921750312 20.078565202898815 24.141785677294198 0 -2 -2
2627 146 17 0.06 2.6239331977023057 15.244162670769414 26.56545857251448 1 0 1
3525 196 15 0.06 5.846099687896463 13.874640620928435 31.587207286956918 0 0 1
2622 146 12 0.06 3.758161339804439 16.972691958634492 28.476825760628767 1 0 1
2998 167 10 0.06 5.828624649248051 14.775779556284286 24.202043784618844 2 -1 -1
3514 196 4 -0.18 4.871865948050349 16.113562711776062 32.27631008280541 0 0 1
2999 167 11 0.06 6.849817454973316 16.105942290884002 23.965298122309548 2 -1 -1
589 33 13 0.06 2.602921065573391 17.862690346174702 26.08862035994663 0 -2 -2
581 33 5 -0.18 2.330434233393422 18.890669163109795 26.27344318587703 0 -2 -2
4376 244 2 -0.4 3.8057478280863 19.468089703786095 31.899279401973537 1 -3 1
2995 167 7 0.03 2.3809335083236927 16.480073212841084 23.602555792731607 2 -1 -1
586 33 10 0.06 4.883988540162617 19.485190584334692 27.08518635004092 0 -2 -2
4384 244 10 0.06 4.16464364235046 19.09454103278435 29.18922141958904 1 -3 1
580 33 4 -0.18 4.729512203196942 19.62528489172514 26.006779163874327 0 -2 -2
3521 196 11 0.06 5.412472301843515 16.151337475246972 31.349754548363215 0 0 1
2620 146 10 0.06 3.1767310874164965 16.836748952983854 30.18206229505031 1 0 1
4386 244 12 0.06 4.2079708352493945 20.818288971109332 28.858635306666027 1 -3 1
4392 244 18 0.06 5.007915315746057 21.707580007554743 31.637009228637815 1 -3 1
2992 167 4 -0.18 6.321363804982927 15.326499685133811 23.403218984453193 2 -1 -1
2989 167 1 0.11 2.95234036373236 16.43521229130323 22.684446745144186 2 -1 -1
2613 146 3 0.2 2.9269820053875413 15.047896655430925 28.754666805903366 1 0 1
3515 196 5 -0.18 5.235631412826185 13.630957646541736 32.38478416943385 0 0 1
3000 167 12 0.06 7.112276100514439 14.680493764224154 22.97444022254445 2 -1 -1
1883 105 11 0.06 5.575621313981159 20.607795404175842 22.5215807389504 0 0 3
6114 340 12 0.06 6.05279291479791 13.429438545443114 41.723139935249804 1 2 -1
3082 172 4 -0.18 2.891327316886539 16.541850490292333 41.39856180545536 0 0 0
6106 340 4 -0.18 6.3804346321554535 13.607239115287891 40.64812500207981 1 2 -1
2270 127 2 -0.4 6.969618182981805 21.282610212523355 36.270152446333626 1 -3 -3
2269 127 1 0.11 7.013696895497662 20.806669851483328 34.96121289323452 1 -3 -3
2286 127 18 0.06 6.387031483577532 21.9887444666503 38.51593976743666 1 -3 -3
2891 161 11 0.06 3.4003933508364144 19.764479530304957 39.97076724517122 1 -1 -2
2277 127 9 0.03 6.627105496330412 19.822986373644813 35.08253123721491 1 -3 -3
2898 161 18 0.06 2.262859641957182 21.129832523295924 37.72087783460994 1 -1 -2
3511 196 1 0.11 7.182530582158901 14.755948429390658 34.71064150440776 0 0 1
2607 145 15 0.06 7.102544345386113 20.815532125707076 40.54083292392137 3 2 0
3089 172 11 0.06 2.448760766531104 16.32476393885326 40.415919223887244 0 0 0
2601 145 9 0.03 6.075392550355053 19.035843621932933 41.806146755521894 3 2 0
2885 161 5 -0.18 2.3669875850601425 22.18572358356304 41.15081017820563 1 -1 -2
2884 161 4 -0.18 3.907259708165974 20.663566327266093 39.73559439830471 1 -1 -2
3081 172 3 0.2 2.563627573574453 15.503555248684426 42.40778367391994 0 0 0
2890 161 10 0.06 4.297007001819708 20.471481598192945 38.68970481793616 1 -1 -2
6112 340 10 0.06 5.530422079229648 14.11343065037369 40.23536180619496 1 2 -1
3513 196 3 0.2 5.280273178974454 14.983877180988895 33.19394497994429 0 0 1
3512 196 2 -0.4 6.629607628129792 15.304768079525324 33.53916344699715 0 0 1
3090 172 12 0.06 3.95600420619967 16.84375085216715 41.140971103257456 0 0 0
3526 196 16 0.06 4.504992568833896 15.813624661888749 34.922183305882825 0 0 1
2593 145 1 0.11 6.9505414143023305 18.786516849222583 42.36780995383934 3 2 0
3528 196 18 0.06 3.2330716886700044 15.262706541775376 33.998860630845805 0 0 1
2892 161 12 0.06 4.7754559926626 20.713296601600966 40.361737237931806 1 -1 -2
3527 196 17 0.06 4.275052057237197 14.14940075122185 35.015101660553256 0 0 1
2276 127 8 0.03 6.335067492526287 21.296782907127465 34.303885148555 1 -3 -3
6104 340 2 -0.4 7.0745374793600115 12.644637829832472 38.50756939130481 1 2 -1
4382 244 8 0.03 3.1065581024559936 18.645844841184317 33.70135674297339 1 -3 1
2883 161 3 0.2 2.985492217929892 21.90828955737008 39.741344812347506 1 -1 -2