LAMMPS data file via write_data, version 29 Aug 2024, timestep = 1000000, units = real

6144 atoms
12 atom types
6144 bonds
12 bond types
9216 angles
18 angle types
12288 dihedrals
24 dihedral types
3072 impropers
6 improper types

1.319407399412011 43.680592600596235 xlo xhi
1.319407399412011 43.680592600596235 ylo yhi
1.319407399412011 43.680592600596235 zlo zhi

Masses

1 12.011
2 12.011
3 12.011
4 12.011
5 12.011
6 12.011
7 1.008
8 1.008
9 1.008
10 1.008
11 1.008
12 1.008

Pair Coeffs # lj/cut/coul/long

1 0.07 3.55
2 0.07 3.55
3 0.07 3.55
4 0.07 3.55
5 0.07 3.55
6 0.07 3.55
7 0.03 2.42
8 0.03 2.42
9 0.03 2.42
10 0.03 2.42
11 0.03 2.42
12 0.03 2.42

Bond Coeffs # harmonic

1 469 1.4
2 469 1.4
3 469 1.4
4 469 1.4
5 469 1.4
6 367 1.08
7 367 1.08
8 367 1.08
9 367 1.08
10 367 1.08
11 367 1.08
12 469 1.4

Angle Coeffs # harmonic

1 63 120
2 63 120
3 63 120
4 63 120
5 35 120
6 35 120
7 35 120
8 35 120
9 35 120
10 35 120
11 35 120
12 35 120
13 35 120
14 35 120
15 63 120
16 35 120
17 63 120
18 35 120

Dihedral Coeffs # opls

1 0 7.25 0 0
2 0 7.25 0 0
3 0 7.25 0 0
4 0 7.25 0 0
5 0 7.25 0 0
6 0 7.25 0 0
7 0 7.25 0 0
8 0 7.25 0 0
9 0 7.25 0 0
10 0 7.25 0 0
11 0 7.25 0 0
12 0 7.25 0 0
13 0 7.25 0 0
14 0 7.25 0 0
15 0 7.25 0 0
16 0 7.25 0 0
17 0 7.25 0 0
18 0 7.25 0 0
19 0 7.25 0 0
20 0 7.25 0 0
21 0 7.25 0 0
22 0 7.25 0 0
23 0 7.25 0 0
24 0 7.25 0 0

Improper Coeffs # cvff

1 1.1 -1 2
2 1.1 -1 2
3 1.1 -1 2
4 1.1 -1 2
5 1.1 -1 2
6 1.1 -1 2

Atoms # full

4929 411 9 0.115 3.247283630522036 7.31261363867808 11.186458401456498 2 0 0
228 19 12 0.115 6.384065513205858 5.5746457505388545 8.740272284763194 0 0 -1
5353 447 1 -0.115 1.8682782932662703 8.633187988026007 7.821885773815907 0 -2 2
4292 358 8 0.115 2.9463207182680797 5.166882823312308 3.1495468297217784 0 3 1
5904 492 12 0.115 4.171771713201135 4.054342829974416 9.586472884765408 2 0 1
4787 399 11 0.115 3.2373912166468157 7.555963253715818 4.222893466222134 1 0 0
5363 447 11 0.115 3.723565432677442 5.781593014121251 8.011082309221887 0 -2 2
4927 411 7 0.115 5.907391324415781 10.429317515681735 10.404095743422216 2 0 0
4296 358 12 0.115 5.628614302779041 3.9076889171137825 6.364628694615795 0 3 1
4294 358 10 0.115 6.496902212803239 2.6707967365113747 2.2524732537064547 0 3 1
4293 358 9 0.115 4.538148126547275 3.794193686503076 1.5831923129104983 0 3 1
4780 399 4 -0.115 3.590118551576668 9.581818285982763 4.890485694330531 1 0 0
5244 437 12 0.115 3.0750122029492664 11.29055535162808 9.291858783407271 0 1 0
4290 358 6 -0.115 5.358071416023089 3.9476591445540112 5.336217486977289 0 3 1
4778 399 2 -0.115 5.9262362442590355 10.166437294787901 5.207784285095615 1 0 0
5898 492 6 -0.115 3.7953158740368886 3.0913165532489826 9.738732092280793 2 0 1
4285 358 1 -0.115 4.1688412783885855 4.610965099048706 4.877346840259184 0 3 1
4786 399 10 0.115 2.4894307625216046 9.782690385978162 5.033723609109758 1 0 0
5894 492 2 -0.115 2.0581645290553885 1.775854878314647 10.885103079044812 2 0 1
4923 411 3 -0.115 3.6482659216900886 8.248539874785948 11.43807662686103 2 0 0
4286 358 2 -0.115 3.7974917880596646 4.571315360181087 3.490748202321517 0 3 1
5358 447 6 -0.115 2.9716532464122904 7.7472555245908765 7.685587994205936 0 -2 2
4779 399 3 -0.115 4.566618445419415 10.432985826175797 5.318019355035206 1 0 0
4782 399 6 -0.115 5.3623896230477595 7.905634192615237 4.51537148859307 1 0 0
4921 411 1 -0.115 5.161504245811219 9.951431260534841 10.970998866587625 2 0 0
5903 492 11 0.115 4.931686970103762 2.0371119400951203 8.254899795422808 2 0 1
5357 447 5 -0.115 2.8553477154763245 6.429194041945367 8.127168500279947 0 -2 2
4788 399 12 0.115 5.662365701470363 6.9800937723264616 4.111444620128159 1 0 0
4781 399 5 -0.115 3.995088004661527 8.257996542401425 4.505436720501001 1 0 0
5356 447 4 -0.115 1.6411540996059568 6.042104908997778 8.667236423869856 0 -2 2
5364 447 12 0.115 3.923786812114768 8.116589971531717 7.373606312119469 0 -2 2
4291 358 7 0.115 3.4359209429641906 5.091735144034786 5.549978640031195 0 3 1
4287 358 3 -0.115 4.694830420432279 3.950808512519055 2.647483376478588 0 3 1
5359 447 7 0.115 1.9877419717848277 9.633288254258533 7.402106920359855 0 -2 2
4785 399 9 0.115 4.2392634210705324 11.482411392422497 5.624831530649985 1 0 0
5897 492 5 -0.115 4.06060108375756 1.996494600755875 8.97212933999821 2 0 1
5899 492 7 0.115 2.4674891954432265 3.8445106516175493 11.301121610373583 2 0 1
4922 411 2 -0.115 4.545510334590344 8.836530097760036 10.567475514664139 2 0 0
5362 447 10 0.115 1.5327895009722723 5.010937093446684 9.062042153538039 0 -2 2
5893 492 1 -0.115 2.765852959010135 3.0139793198821416 10.69872602401451 2 0 1
4928 411 8 0.115 4.947583609464089 8.240154406782445 9.709175299482363 2 0 0
5340 445 12 0.115 6.438116058139368 10.5608641945725 1.6237212951916795 4 3 1
5339 445 11 0.115 4.561905628644668 11.840815265524338 2.5562847441378063 4 3 1
4289 358 5 -0.115 6.150735947457738 3.2998064642365623 4.396069226281668 0 3 1
4777 399 1 -0.115 6.298023587247661 8.9062100827908 4.799929067252968 1 0 0
4288 358 4 -0.115 5.878377190026075 3.2470874356647723 2.9817481701940673 0 3 1
3264 272 12 0.115 3.6583265604989634 8.424930130248354 1.5550098971685526 2 2 1
5239 437 7 0.115 2.530748669297246 11.670124838681332 6.963040217459459 0 1 0
3263 272 11 0.115 5.896632467412238 7.908714990798136 1.5096757120026865 2 2 1
3114 260 6 -0.115 4.501220716557819 1.3354462367117346 17.655494829663372 0 1 -1
2031 170 3 -0.115 2.738289220280019 5.228012749363175 14.827757581467685 2 1 -1
2725 228 1 -0.115 3.3772858860555197 9.928446148822843 16.580054818553787 0 -1 2
2038 170 10 0.115 3.769081943171445 6.967733627237908 15.620215793551044 2 1 -1
2036 170 8 0.115 2.071680085023438 3.3634414177273397 13.90908457878733 2 1 -1
2037 170 9 0.115 1.800011370718754 5.456131728603202 15.299677425123955 2 1 -1
2039 170 11 0.115 6.01884494470308 6.186753799259274 14.652438778759056 2 1 -1
2034 170 6 -0.115 5.227300479444681 4.3355171952067515 13.803804800370314 2 1 -1
2728 228 4 -0.115 1.7479370384382715 11.89118410413853 17.920809846862838 0 -1 2
3110 260 2 -0.115 4.978246207941524 3.7171199205842216 17.385706060845756 0 1 -1
2030 170 2 -0.115 2.8693654613563293 3.9735633141255913 14.175018953606639 2 1 -1
2907 243 3 -0.115 5.832461297088813 7.284002162174108 17.946292186762204 1 -1 -2
2909 243 5 -0.115 6.560791848061791 9.069155888103339 19.578827405188818 1 -1 -2
4924 411 4 -0.115 3.178053864411136 8.92740324671109 12.592783924443436 2 0 0
2910 243 6 -0.115 5.3639801239531835 8.812718870323634 20.32386625846781 1 -1 -2
4598 384 2 -0.115 1.840060403158883 2.511614374929506 21.13984811944136 2 2 0
2029 170 1 -0.115 4.121721284716882 3.5598680937277787 13.672653211493497 2 1 -1
2731 228 7 0.115 3.9951548427051122 9.28731634415004 15.963194751616971 0 -1 2
3116 260 8 0.115 4.866485108350916 4.628102387862092 16.83747199938044 0 1 -1
3109 260 1 -0.115 4.481904349522091 2.50789230895426 16.877871450172048 0 1 -1
3113 260 5 -0.115 4.992837192777575 1.3638359877859285 18.990133086919432 0 1 -1
2911 243 7 0.115 3.516098742210204 7.830309183008619 20.3709811674034 1 -1 -2
3115 260 7 0.115 3.887654546064001 2.4882888729306116 15.949492685320186 0 1 -1
2732 228 8 0.115 1.6911866784053946 8.717115807521054 16.56501231380934 0 -1 2
2912 243 8 0.115 3.8539061671954418 6.590149412308256 18.182478002242657 1 -1 -2
2032 170 4 -0.115 3.876119634441048 6.039337125995971 15.036184511339835 2 1 -1
4603 384 7 0.115 2.770364930034983 4.241685865259536 22.114581200596252 2 2 0
2035 170 7 0.115 4.2326118560394095 2.577660917918824 13.23571978202268 2 1 -1
2726 228 2 -0.115 2.0507065968849614 9.62424657914708 16.889146948155187 0 -1 2
4925 411 5 -0.115 3.7293675319668136 10.181498397428467 12.989207215695384 2 0 0
3112 260 4 -0.115 5.628786078936496 2.5657463862113987 19.434963347470795 0 1 -1
3111 260 3 -0.115 5.6243956441104785 3.692471504771104 18.610490895661655 0 1 -1
2033 170 5 -0.115 5.158544760695041 5.6191704837631145 14.4836865597721 2 1 -1
2906 243 2 -0.115 4.639819909026205 7.197676401373376 18.63038435699738 1 -1 -2
2905 243 1 -0.115 4.446955674911318 7.9029419238078535 19.85660409811815 1 -1 -2
4930 411 10 0.115 2.4631298537313566 8.448138769965507 13.25064682547001 2 0 0
4602 384 6 -0.115 2.1293483430631532 4.755316242200516 20.139085564165335 2 2 0
4601 384 5 -0.115 1.5941380472361524 4.297334081266637 18.9286027784121 2 2 0
2916 243 12 0.115 5.189580472351624 9.443662281224885 21.211571587266935 1 -1 -2
4607 384 11 0.115 1.4111542605969987 5.046583501934688 18.132784433610034 2 2 0
4597 384 1 -0.115 2.2883885073986625 3.875666146205875 21.23939388324896 2 2 0
4604 384 8 0.115 2.036879803021974 1.823697746918263 21.950889446544377 2 2 0
4608 384 12 0.115 2.460330090901903 5.836477534255236 20.271793940989593 2 2 0
2730 228 6 -0.115 3.8276933397822854 11.258723341364224 16.854002711577145 0 -1 2
4931 411 11 0.115 3.217787712322896 10.73234081678836 13.782769871519942 2 0 0
5484 457 12 0.115 5.728000579926749 6.425006336514236 21.6955156538211 0 1 0
2736 228 12 0.115 4.851949537426336 11.383128273397256 16.53494170074982 0 -1 2
3118 260 10 0.115 6.062744435318092 2.7055530562311993 20.4076284821182 0 1 -1
2040 170 12 0.115 6.157354361024419 3.909923483907079 13.439011655794733 2 1 -1
2913 243 9 0.115 5.83361415137563 6.78971622768375 16.978600582145653 1 -1 -2
4599 384 3 -0.115 1.3241238840052636 2.0794830573368337 19.913697533430053 2 2 0
4932 411 12 0.115 5.148619549696857 11.608664229438208 12.459080414792606 2 0 0
3117 260 9 0.115 6.1240408875911845 4.545008943457789 18.863548670194664 0 1 -1
6059 505 11 0.115 1.911912109261806 10.990264344502581 21.14979110232365 2 -1 0
6053 505 5 -0.115 1.7445917598234337 10.08156317320724 21.67237722042363 2 -1 0
4926 411 6 -0.115 4.684710653520382 10.688632303562343 12.11355007718926 2 0 0
4573 382 1 -0.115 4.286434588406637 10.23957113001436 27.013488529515325 5 3 2
5990 500 2 -0.115 2.870641047504993 2.3311172474575566 28.785714390533258 1 0 0
4580 382 8 0.115 3.3412434127320574 11.865333040661145 28.20530364207733 5 3 2
5482 457 10 0.115 6.103310294292152 6.296172426928255 25.92236867242017 0 1 0
6000 500 12 0.115 5.034738257349037 4.141494728502285 30.56970242429573 1 0 0
5999 500 11 0.115 6.557562882363522 2.6029483002659832 29.63397696214315 1 0 0
3537 295 9 0.115 2.1770015171025197 7.958218311347017 27.50367114343468 -1 3 1
5993 500 5 -0.115 5.50178045437218 2.4937000339687367 29.408782628179456 1 0 0
4152 346 12 0.115 4.042021174154152 10.51635425217276 32.144055603433316 -2 0 -1
3530 295 2 -0.115 1.683450454104359 7.390642055390994 29.47993081961662 -1 3 1
156 13 12 0.115 6.199240754156237 8.506892529800702 32.57736094937559 0 1 -1
3531 295 3 -0.115 1.496203043138818 7.428299688560873 28.078865458150947 -1 3 1
5989 500 1 -0.115 3.2158747344116936 3.3827175684167883 29.69566747170388 1 0 0
4578 382 6 -0.115 5.504922184422193 9.941754382371116 26.368879343994397 5 3 2
4579 382 7 0.115 3.4075771520661338 9.735609479583152 26.567414142637734 5 3 2
4574 382 2 -0.115 4.277158443774199 11.383431416476748 27.931433104899796 5 3 2
5167 431 7 0.115 5.97464582201466 6.055786588916971 28.60204494959749 0 1 1
5168 431 8 0.115 5.857581855871479 8.524935056425361 29.069524889525148 0 1 1
3536 295 8 0.115 2.706084175592596 7.79331353613984 29.91550785584963 -1 3 1
6050 505 2 -0.115 1.4965916029294233 7.445759659308206 22.84673632650635 2 -1 0
5995 500 7 0.115 2.4912093971687157 4.090164524693573 29.996135810102302 1 0 0
4141 346 1 -0.115 2.659881792760664 11.814403986913264 31.07661355110851 -2 0 -1
154 13 10 0.115 3.0979343891401028 5.514316697156677 32.59257303073164 0 1 -1
178 15 10 0.115 1.958645567146696 2.430087130358902 26.165276808489793 1 2 2
6054 505 6 -0.115 2.7042353525560143 9.566718360049755 22.621929446193658 2 -1 0
5991 500 3 -0.115 3.711781537176156 1.3663670631286366 28.315173319967283 1 0 0
6055 505 7 0.115 3.448320682312868 8.137153135417085 23.896136214230516 2 -1 0
4146 346 6 -0.115 2.992122207364403 10.61541119884027 31.780067673753255 -2 0 -1
4145 346 5 -0.115 2.008466386559531 9.63144172854217 32.00059637728553 -2 0 -1
4584 382 12 0.115 5.656144520969448 9.22863341013139 25.612759412084262 5 3 2
5994 500 6 -0.115 4.5922482103575994 3.4114329942191826 29.93813160705403 1 0 0
5483 457 11 0.115 4.857666287187529 6.424856599742637 23.898075376114573 0 1 0
5996 500 8 0.115 1.8158567389372648 2.2758764817372046 28.575324187648228 1 0 0
6049 505 1 -0.115 2.610803948027892 8.292229704738624 23.210415433936383 2 -1 0
149 13 5 -0.115 4.763020340195571 6.869655670979517 32.53721904433887 0 1 -1
155 13 11 0.115 5.227099105535915 6.34973716929513 31.726759075331124 0 1 -1
5477 457 5 -0.115 5.883069634737362 6.33024138972921 23.804440642947057 0 1 0
148 13 4 -0.115 3.579679542667808 6.338853066624159 33.07880450941104 0 1 -1
4151 346 11 0.115 2.208233060003363 8.766593041716899 32.65434343364815 -2 0 -1
6056 505 8 0.115 1.491054681677379 6.453614245341796 23.211990806583064 2 -1 0
5992 500 4 -0.115 5.071301039836063 1.4432075180796702 28.628044387604923 1 0 0
4645 388 1 -0.115 6.412310488926351 2.1045432346427226 32.5827823065505 -2 1 -2
4079 340 11 0.115 6.011786658393673 11.867486211990146 31.20168733201857 0 -1 1
5478 457 6 -0.115 6.404046678584021 6.3384217360871915 22.544490460093478 0 1 0
6060 505 12 0.115 3.5645319674903764 10.236354558963498 22.880809290168543 2 -1 0
4651 388 7 0.115 6.597551321611254 1.6107396360218826 31.64351969075305 -2 1 -2
147 13 3 -0.115 2.9215114800593733 6.818104763669776 34.18940278518872 0 1 -1
2212 185 4 -0.115 4.931542959649334 6.361373394212827 38.920679913623914 0 0 -1
2213 185 5 -0.115 5.790279839044038 6.355619366076287 37.825775685501256 0 0 -1
146 13 2 -0.115 3.5537700488847173 7.992735692493299 34.73698546717969 0 1 -1
1205 101 5 -0.115 3.5958901969788153 3.365741004980463 38.10232348299449 -1 0 -1
4654 388 10 0.115 6.089757831407267 3.7443464256567407 36.099289305221035 -2 1 -2
3253 272 1 -0.115 3.6097533637170423 9.597801410112455 42.093800404741486 2 2 0
3261 272 9 0.115 6.1922511648389795 10.089373058472159 40.11044890778844 2 2 0
2218 185 10 0.115 3.871434449863862 6.405342866889248 38.770234162419314 0 0 -1
3404 284 8 0.115 4.9984781651993115 2.155373012710507 41.16840099412154 0 1 -2
152 13 8 0.115 3.1265074359603995 8.35724124578519 35.62811252475335 0 1 -1
5709 476 9 0.115 3.035799409132608 11.753123679132633 36.76086674851301 -1 -1 0
1206 101 6 -0.115 3.0287404816147863 4.102882438132783 37.01196511791656 -1 0 -1
1204 101 4 -0.115 2.883140877796598 2.280634409618198 38.65292376080677 -1 0 -1
153 13 9 0.115 1.9747988960972278 6.508625583404902 34.55041481511063 0 1 -1
2217 185 9 0.115 4.656349882013615 6.078662004671819 40.94477559496438 0 0 -1
2857 239 1 -0.115 1.7373147999197838 4.654315839239891 42.57970152231724 0 -3 -1
1203 101 3 -0.115 1.644422692578161 1.896870748532905 38.05861429702263 -1 0 -1
5220 435 12 0.115 1.6801887313822004 10.614518750070658 38.89464619395581 1 2 -2
2211 185 3 -0.115 5.413877064704959 6.067584769532926 40.198479244493825 0 0 -1
1211 101 11 0.115 4.635221836518237 3.6614380266793436 38.38614764755761 -1 0 -1
3256 272 4 -0.115 6.319376929034187 8.86682917437302 41.92647045627233 2 2 0
2868 239 12 0.115 3.030978177426058 6.332748626818686 42.4971893804848 0 -3 -1
3254 272 2 -0.115 4.392209101786482 10.017273447606227 41.04594876683832 2 2 0
1201 101 1 -0.115 1.7214940954735263 3.9046785417420002 36.636563520906876 -1 0 -1
2863 239 7 0.115 2.590445161050192 4.10203569377151 42.94188483150114 0 -3 -1
2219 185 11 0.115 5.459849526835389 6.672764186081496 36.825463368194036 0 0 -1
5704 476 4 -0.115 4.939582463884395 10.732767418087299 37.03277918530365 -1 -1 0
2862 239 6 -0.115 2.0286538142351227 5.9505598415643615 42.41171566907933 0 -3 -1
5705 476 5 -0.115 6.282629558645392 10.824865153595747 37.37285906175619 -1 -1 0
3255 272 3 -0.115 5.710365631404343 9.568153571803741 40.88889764498012 2 2 0
1212 101 12 0.115 3.5302125330102383 4.937439345775692 36.47710924117891 -1 0 -1
145 13 1 -0.115 4.782774757702969 8.559774139592093 34.25736285451076 0 1 -1
4649 388 5 -0.115 5.873979758748022 1.873236639369402 34.932564166458704 -2 1 -2
5215 435 7 0.115 3.0166648588118488 8.476316978501979 38.57198871837845 1 2 -2
3398 284 2 -0.115 5.962683515096089 1.7229885641211569 41.32873798689904 0 1 -2
3259 272 7 0.115 2.5160162794598 9.849499312492126 42.2053690467972 2 2 0
5209 435 1 -0.115 1.9844258821397915 8.478529922088004 38.404215307492805 1 2 -2
5216 435 8 0.115 1.8621283660790975 6.436143147906611 37.71167871413169 1 2 -2
3257 272 5 -0.115 5.53211272988864 8.414832690868966 42.99835394315002 2 2 0
3260 272 8 0.115 3.958120159712952 10.739740451382668 40.36471024566856 2 2 0
3258 272 6 -0.115 4.212434838019126 8.80196288583496 43.03414473089532 2 2 0
1210 101 10 0.115 3.2463607304090774 1.6353128437740847 39.454587360221836 -1 0 -1
4647 388 3 -0.115 6.537781192142659 4.042552357876844 34.03892522302168 -2 1 -2
151 13 7 0.115 5.249063517828889 9.402775295390787 34.809235212396516 0 1 -1
5710 476 10 0.115 4.409881889774448 9.723949346020667 37.05146571381208 -1 -1 0
4648 388 4 -0.115 6.1250016395126945 3.226115149187125 35.12329658549727 -2 1 -2
5703 476 3 -0.115 4.06712345625175 11.848121845577664 36.88461174368227 -1 -1 0
4650 388 6 -0.115 5.936994247886377 1.3368950169356997 33.68695217980698 -2 1 -2
4655 388 11 0.115 5.5423566373280275 1.3414634110254195 35.793025325111856 -2 1 -2
150 13 6 -0.115 5.386128497715243 8.000495836576775 33.12913528547111 0 1 -1
5210 435 2 -0.115 1.3329154673413512 7.327729539919187 37.85520951045662 1 2 -2
5240 437 8 0.115 2.821925386803594 13.9316025703135 5.978945227733659 0 1 0
5242 437 10 0.115 3.4268155347643914 15.574677575596949 9.834603635626582 0 1 0
105 9 9 0.115 4.21832331878257 22.10301173608848 3.034822489398457 1 -1 -1
3695 308 11 0.115 4.556826171992978 20.986132370400984 11.495627379110944 0 2 4
5189 433 5 -0.115 6.4491581811654495 17.50840148963286 6.301704678183562 -2 1 1
98 9 2 -0.115 5.993257144679614 22.140735678161235 1.726732729489742 1 -1 -1
5190 433 6 -0.115 5.2761476931390865 16.982047822587774 5.742328819807264 -2 1 1
99 9 3 -0.115 4.737331958612403 21.67921397840464 2.1823076549629405 1 -1 -1
5234 437 2 -0.115 2.718960377613395 13.800144717029466 7.044001436477556 0 1 0
5243 437 11 0.115 3.5924373810322647 13.320900747563305 10.891281961009414 0 1 0
3693 308 9 0.115 3.1977831758408164 19.168634022360106 7.892428267394644 0 2 4
4824 402 12 0.115 5.915557895437064 13.970864506396786 8.746597917794 0 2 0
3688 308 4 -0.115 3.974345351426343 20.030334888592883 9.71467177890322 0 2 4
5191 433 7 0.115 3.61912262951507 17.354711124571732 4.423497607067095 -2 1 1
5233 437 1 -0.115 2.7125986962301543 12.512792640050144 7.625604317023547 0 1 0
3686 308 2 -0.115 1.5973305510430935 19.83415570244473 9.254495731983091 0 2 4
5185 433 1 -0.115 4.4785882650411715 17.807332729012238 4.93416778768868 -2 1 1
2576 215 8 0.115 3.4584620689227363 21.969904259311846 7.747993664280558 0 1 1
3687 308 3 -0.115 2.925723841534004 19.615066438341273 8.879837993024314 0 2 4
5333 445 5 -0.115 5.539709238213064 12.154246101955168 2.7848851731697346 4 3 1
3803 317 11 0.115 2.3973971145394426 12.499001817369399 1.9689935626076398 2 1 0
3689 308 5 -0.115 3.745426074386021 20.75244339772829 10.895483492011468 0 2 4
5238 437 6 -0.115 3.00411952969697 12.314865625265284 8.974340735180792 0 1 0
106 9 10 0.115 3.0262885771705186 20.47601461245842 1.5620627600389951 1 -1 -1
5187 433 3 -0.115 6.036965650957232 19.617510696384205 5.31066257362699 -2 1 1
5237 437 5 -0.115 3.3765591729021227 13.39213771060151 9.795154588894716 0 1 0
5235 437 3 -0.115 3.0492538547783683 14.927764908161826 7.849147269787749 0 1 0
3802 317 10 0.115 1.7529807397244648 14.130760318699627 3.8173770093138804 2 1 0
3103 259 7 0.115 6.522033851990464 17.615431931328814 10.052621123003512 0 0 2
5236 437 4 -0.115 3.223816975775502 14.683583651189755 9.201733399896284 0 1 0
5241 437 9 0.115 3.207544083083568 15.933649586059893 7.494212966686244 0 1 0
5193 433 9 0.115 6.282280367169712 20.68199307709367 5.206850652316355 -2 1 1
5332 445 4 -0.115 5.784618198661985 13.364628406174585 3.566937554776094 4 3 1
5338 445 10 0.115 4.901836135976729 13.877146122519491 4.088488384103863 4 3 1
5196 433 12 0.115 4.92874226624097 15.896987147105671 5.794355687724274 -2 1 1
2241 187 9 0.115 6.276821040717937 21.370162038445287 8.282509122066383 -3 0 0
5192 433 8 0.115 4.313841313853227 19.775853221335225 3.9864558517185817 -2 1 1
3694 308 10 0.115 4.982103325557045 19.750832248957874 9.44130685073225 0 2 4
3690 308 6 -0.115 2.3983362560435593 20.93983640162044 11.303433102723199 0 2 4
5186 433 2 -0.115 4.824175761926275 19.15817540742901 4.786441381705127 -2 1 1
3797 317 5 -0.115 1.646393887246734 12.195181415639675 2.6921982322807416 2 1 0
3685 308 1 -0.115 1.3446728796242249 20.4915912413214 10.434220697372762 0 2 4
5023 419 7 0.115 4.031081077920737 15.72455685625477 18.69533075538728 1 0 1
1956 163 12 0.115 4.954341617949508 15.608966857957611 13.075806747383975 2 2 3
3570 298 6 -0.115 5.428382634878635 21.653169783291084 19.717383022419355 3 0 -2
4933 412 1 -0.115 6.4137123085406955 13.493089452077433 15.302987589636214 0 -2 1
3932 328 8 0.115 5.100254743415036 16.210805147447644 22.15877731326422 -1 1 1
1946 163 2 -0.115 1.7933390027952802 14.629572815534383 13.842180096950905 2 2 3
1895 158 11 0.115 3.7982984944309224 18.34552107355474 21.067916289699067 2 0 1
1889 158 5 -0.115 2.790785055774597 18.45973445734535 21.44030936508402 2 0 1
1894 158 10 0.115 2.6072761933199424 19.958169220992 20.10505409985954 2 0 1
5024 419 8 0.115 5.8252083483317065 17.087085578036614 19.621951585939293 1 0 1
4939 412 7 0.115 5.813870617599167 14.265241830742857 14.996679845158232 0 -2 1
5017 419 1 -0.115 4.607367277839673 16.40595425586031 18.07138585222304 1 0 1
1949 163 5 -0.115 3.1515018675450897 16.579852219375766 12.294232282502763 2 2 3
5018 419 2 -0.115 5.606896509625264 17.245877463101973 18.57825915700661 1 0 1
1950 163 6 -0.115 3.902127527258442 15.65278760491154 13.028742395806823 2 2 3
3928 328 4 -0.115 5.874225916935356 13.294562703697414 20.768329056118343 -1 1 1
5028 419 12 0.115 3.343630434488106 15.952227746155001 16.405360021259437 1 0 1
4934 412 2 -0.115 6.597751672133307 13.107556720964178 16.668640398593787 0 -2 1
1951 163 7 0.115 3.7122601979459904 13.86530812475188 14.153708417675459 2 2 3
3930 328 6 -0.115 3.390361851404209 13.67359543070508 20.699420241228978 -1 1 1
5027 419 11 0.115 4.57490320540181 17.47897596413204 14.829335782612691 1 0 1
2729 228 5 -0.115 3.0578787804012677 12.18773661378701 17.55407080187237 0 -1 2
3569 298 5 -0.115 4.33578375958807 22.378680173304453 20.279924053450095 3 0 -2
166 14 10 0.115 6.392532827375453 21.153209405937492 13.813832895295235 1 -1 1
4940 412 8 0.115 6.034021456670249 13.655614295823147 17.458574165497534 0 -2 1
5020 419 4 -0.115 5.8354645166935954 18.22855680417395 16.30794097595382 1 0 1
3576 298 12 0.115 5.4794388699869225 21.164183135455172 18.747130561794375 3 0 -2
3927 328 3 -0.115 6.018301656684273 14.445443644991316 21.51636856540919 -1 1 1
3926 328 2 -0.115 4.904167730750865 15.291088818776526 21.679609443444967 -1 1 1
5022 419 6 -0.115 4.20642483565124 16.485298480880747 16.759207696698375 1 0 1
3824 319 8 0.115 2.764904862110603 19.678083362057787 15.110893340047433 2 -1 -1
3931 328 7 0.115 2.7651741104197045 15.626696989230691 21.571557490413763 -1 1 1
3817 319 1 -0.115 1.8052225934404424 21.036817387860104 16.591331546603076 2 -1 -1
3818 319 2 -0.115 2.059843531675822 19.812878939439546 15.922422063294967 2 -1 -1
3929 328 5 -0.115 4.5498701737579434 12.90248458547273 20.392124659434078 -1 1 1
5021 419 5 -0.115 4.75131490341856 17.406051276812107 15.91119519630108 1 0 1
2735 228 11 0.115 3.405656369543542 13.226470208360631 17.631556923963565 0 -1 2
1952 163 8 0.115 1.3394203394171456 13.801817498425846 14.351060178924907 2 2 3
1888 158 4 -0.115 2.0177722587212727 19.42523551555674 20.785227687122184 2 0 1
1948 163 4 -0.115 1.7663471661620318 16.66096706697396 12.542502359863429 2 2 3
5019 419 3 -0.115 6.25799153448853 18.188683531783482 17.704799174670978 1 0 1
1945 163 1 -0.115 3.1764900921146815 14.602807083508983 13.635956611562726 2 2 3
3825 319 9 0.115 1.456597459570738 17.745751779016555 15.823810207329469 2 -1 -1
3823 319 7 0.115 2.412077666105289 21.875040195921184 16.21823521999383 2 -1 -1
3696 308 12 0.115 2.124304917752323 21.503685496131737 12.188500318631947 0 2 4
3936 328 12 0.115 2.430388622770791 13.332853580118885 20.40175073958926 -1 1 1
3925 328 1 -0.115 3.609704713043314 14.945363984237494 21.330273934205874 -1 1 1
5026 419 10 0.115 6.388335690591182 18.80683619332218 15.566483497375794 1 0 1
3108 259 12 0.115 6.581389898743078 18.543746894317074 12.45673544553897 0 0 2
1955 163 11 0.115 3.5664265783527136 17.489901087150507 11.929383472644178 2 2 3
3935 328 11 0.115 4.357260272198156 11.998639775363877 19.845317311141 -1 1 1
4540 379 4 -0.115 1.9133364474437458 17.683598673689836 29.616849897800638 -1 -1 -1
785 66 5 -0.115 4.305225325224716 15.323547728690642 25.662298509161044 -2 0 -1
4581 382 9 0.115 5.404758300458973 12.79509123879843 28.92554066065748 5 3 2
5425 453 1 -0.115 2.604375038948639 22.39133962602931 30.672457658188563 1 2 2
5157 430 9 0.115 3.3393929173383925 20.448378028955343 23.72778948687549 0 1 2
791 66 11 0.115 4.613221591716043 16.185268063289037 26.262994441100503 -2 0 -1
4629 386 9 0.115 5.843109765704908 18.550603776941006 23.87497221310428 1 1 0
5430 453 6 -0.115 1.7030783685708368 21.325440246640607 30.86200862091511 1 2 2
792 66 12 0.115 2.322437380595859 16.1508728317028 25.180188526525388 -2 0 -1
784 66 4 -0.115 5.106902673853834 14.203365681274013 25.46741531009277 -2 0 -1
5429 453 5 -0.115 1.9159745843921137 20.422315842918714 31.929758023973 1 2 2
4537 379 1 -0.115 2.45059137479158 15.740722973651584 31.634784392882732 -1 -1 -1
5156 430 8 0.115 5.168814851206712 20.943488290584337 25.440463042742497 0 1 2
1320 110 12 0.115 5.134789199409057 19.32903009246253 29.771791851781366 -1 0 -1
1232 103 8 0.115 1.755026678715714 20.84336686692121 26.893386903294328 0 1 4
783 66 3 -0.115 4.668412660582597 13.101090779421694 24.653917023656668 -2 0 -1
1233 103 9 0.115 1.6838749983087973 18.265315804492896 26.040366124992996 0 1 4
5151 430 3 -0.115 3.321660490949697 21.307411175731776 24.463018333761212 0 1 2
1890 158 6 -0.115 2.288812420133865 17.73260258805957 22.5348574935862 2 0 1
4543 379 7 0.115 2.669353891208805 14.966687370906195 32.3720833196472 -1 -1 -1
4545 379 9 0.115 3.75062008675685 17.227247582997826 28.804051347728475 -1 -1 -1
4147 346 7 0.115 3.4247863462278527 12.502865792075173 30.798345327098076 -2 0 -1
1314 110 6 -0.115 6.018401027755372 19.827674185549746 30.177833499747486 -1 0 -1
790 66 10 0.115 6.148519628435906 14.202016075002252 25.72329289859434 -2 0 -1
789 66 9 0.115 5.371973143079216 12.299794061355698 24.45713753181617 -2 0 -1
781 66 1 -0.115 2.590913224234784 14.279733595750319 24.25440013347859 -2 0 -1
4544 379 8 0.115 4.375486841321866 15.42858480856315 30.59784043079859 -1 -1 -1
5427 453 3 -0.115 3.6644567781399364 21.928033762062558 32.840357031141664 1 2 2
4546 379 10 0.115 1.5062790795939587 18.191562284805954 28.717731022098377 -1 -1 -1
5435 453 11 0.115 1.3460137692237588 19.476286858637007 32.04550146682425 1 2 2
5152 430 4 -0.115 2.163305194533401 22.1113274813829 24.383265559219478 0 1 2
4072 340 4 -0.115 5.350885701422269 13.369853650722197 32.62218710500011 0 -1 1
786 66 6 -0.115 3.0337784528247913 15.324559703514595 25.046194333901052 -2 0 -1
5150 430 2 -0.115 4.269286748404777 21.519166901960403 25.504194471483622 0 1 2
5428 453 4 -0.115 2.874313304289265 20.789218654596024 32.964627324806756 1 2 2
4539 379 3 -0.115 3.0859211292362074 16.958639980246936 29.58883398144316 -1 -1 -1
1896 158 12 0.115 2.9263976862830585 17.023235634465653 23.06754752514604 2 0 1
5158 430 10 0.115 1.4982908851009995 22.018652738604356 23.57890985758346 0 1 2
4575 382 3 -0.115 5.480149624622572 11.942850575009363 28.337387024903393 5 3 2
782 66 2 -0.115 3.3509742021620665 13.12425544572925 24.1133271994172 -2 0 -1
4538 379 2 -0.115 3.400077222603039 16.017964784708553 30.622381750160567 -1 -1 -1
787 66 7 0.115 1.6476228114563023 14.384801989348363 23.76010912021903 -2 0 -1
1319 110 11 0.115 5.254232943815955 21.855146939328186 29.546451996177982 -1 0 -1
788 66 8 0.115 2.872924745714349 12.349505234490923 23.56858454083383 -2 0 -1
1313 110 5 -0.115 6.067286339055678 21.290035724968945 30.03533094819234 -1 0 -1
4073 340 5 -0.115 6.136059897004149 12.838831223824386 31.58896678216071 0 -1 1
2095 175 7 0.115 6.4275502961936475 17.79510993931185 34.66854197580372 -2 0 -2
2199 184 3 -0.115 3.596092013009274 15.269359640719621 41.367826589784 0 -1 2
108 9 12 0.115 6.390643730217002 20.36210846669687 41.23169628864899 1 -1 -2
2089 175 1 -0.115 6.160384851994861 18.306400716418484 35.51958565160194 -2 0 -2
4077 340 9 0.115 4.929373478697798 15.135901904002209 33.86573604764928 0 -1 1
2096 175 8 0.115 5.954157135710858 20.265470012851353 34.58926705720987 -2 0 -2
2207 184 11 0.115 6.3420414832301155 13.353525766990828 42.15243905626217 0 -1 2
534 45 6 -0.115 2.3617443968447267 17.57487991786892 35.614664095286074 -1 0 0
1459 122 7 0.115 1.6640629975393482 12.015800815110978 34.19321142394145 0 3 -1
4676 390 8 0.115 2.0390834790409773 19.664789880733064 39.707017689326904 -1 1 3
2099 175 11 0.115 5.4659832609598995 17.67443615883463 38.788878978298996 -2 0 -2
2093 175 5 -0.115 5.730350654926804 18.244522852295432 37.95886781713709 -2 0 -2
540 45 12 0.115 3.2986324168862575 17.299627645074544 35.26144977476707 -1 0 0
2200 184 4 -0.115 4.507826971112438 14.179669404580821 41.277113388541 0 -1 2
101 9 5 -0.115 4.672878318951534 20.312987103625677 42.48902251929945 1 -1 -2
2198 184 2 -0.115 3.9402429829161205 16.402081432200497 42.1364035307987 0 -1 2