LAMMPS data file via write_data, version 29 Aug 2024, timestep = 1000000, units = real

5488 atoms
16 atom types
5145 bonds
15 bond types
9261 angles
27 angle types
10290 dihedrals
30 dihedral types
3087 impropers
9 improper types

4.978959823819174 45.34661017616253 xlo xhi
8.657540128665772 46.486439871326 ylo yhi
7.9786626753263405 47.603607324778906 zlo zhi

Masses

1 12.011
2 12.011
3 12.011
4 15.999
5 12.011
6 12.011
7 1.008
8 1.008
9 1.008
10 1.008
11 1.008
12 1.008
13 1.008
14 1.008
15 1.008
16 1.008

Pair Coeffs # lj/cut/coul/long

1 0.066 3.5
2 0.066 3.5
3 0.105 3.75
4 0.21 2.96
5 0.066 3.5
6 0.066 3.5
7 0.03 2.5
8 0.03 2.5
9 0.03 2.5
10 0.015 2.42
11 0.015 2.42
12 0.015 2.42
13 0.015 2.42
14 0.03 2.5
15 0.03 2.5
16 0.03 2.5

Bond Coeffs # harmonic

1 268 1.529
2 317 1.522
3 570 1.229
4 317 1.522
5 268 1.529
6 340 1.09
7 340 1.09
8 340 1.09
9 340 1.09
10 340 1.09
11 340 1.09
12 340 1.09
13 340 1.09
14 340 1.09
15 340 1.09

Angle Coeffs # harmonic

1 63 111.1
2 80 120.4
3 70 116
4 63 111.1
5 37.5 110.7
6 37.5 110.7
7 37.5 110.7
8 37.5 110.7
9 37.5 110.7
10 35 109.5
11 35 109.5
12 37.5 110.7
13 37.5 110.7
14 37.5 110.7
15 80 120.4
16 33 107.8
17 37.5 110.7
18 35 109.5
19 33 107.8
20 33 107.8
21 37.5 110.7
22 33 107.8
23 33 107.8
24 33 107.8
25 33 107.8
26 33 107.8
27 35 109.5

Dihedral Coeffs # opls

1 -0.277 1.228 -0.694 0
2 1.454 -0.144 -0.775 0
3 0 0 -0.076 0
4 0 0 -0.076 0
5 1.454 -0.144 -0.775 0
6 0 0 -0.076 0
7 0 0 0.275 0
8 -0.277 1.228 -0.694 0
9 0 0 0.275 0
10 0 0 0.275 0
11 0 0 0.275 0
12 0 0 -0.076 0
13 0 0 0.3 0
14 0 0 0.3 0
15 0 0 0.3 0
16 0 0 0.3 0
17 0 0 0.3 0
18 0 0 0.3 0
19 0 0 0.3 0
20 0 0 -0.076 0
21 0 0 -0.076 0
22 0 0 0.3 0
23 0 0 0 0
24 0 0 0.3 0
25 0 0 0.3 0
26 0 0 0 0
27 0 0 0 0
28 0 0 0.3 0
29 0 0 0 0
30 0 0 0.3 0

Improper Coeffs # cvff

1 10.5 -1 2
2 0 -1 2
3 0 -1 2
4 0 -1 2
5 0 -1 2
6 0 -1 2
7 0 -1 2
8 0 -1 2
9 0 -1 2

Atoms # full

2147 135 3 0.47 14.294126564566797 11.565876371071436 14.375086948824224 0 1 -1
2160 135 16 0.06 13.387474340432314 9.501397188197847 16.1918273214625 0 1 -1
2158 135 14 0.06 12.846720993856785 9.021247481366498 14.696456063691684 0 1 -1
2146 135 2 -0.12 14.517386504468924 12.995793531673147 13.988085155149424 0 1 -1
2150 135 6 -0.18 12.647349425339076 9.847807943428068 15.43441539370678 0 1 -1
2149 135 5 -0.12 12.950906334070854 11.28951861981414 15.06001870110984 0 1 -1
2159 135 15 0.06 11.623854606680933 9.775170671225862 15.783156456292797 0 1 -1
2157 135 13 0.06 12.910492583418655 11.999132564708049 15.833558408613852 0 1 -1
2156 135 12 0.06 12.339593363788824 11.486637050320722 14.181720000811666 0 1 -1
2154 135 10 0.06 13.825087248867645 13.424601427187353 13.254589531384552 0 1 -1
4162 261 2 -0.12 12.317099948750684 10.27695413673824 11.200816896741479 0 0 0
4401 276 1 -0.18 10.854840516497958 13.723255712491042 11.624224036436793 1 2 0
4407 276 7 0.06 10.653041267701262 14.026961884606735 12.669580128338701 1 2 0
2588 162 12 0.06 5.907312011884323 11.359940438675693 13.870466860815462 0 2 2
4163 261 3 0.47 12.194232883965494 10.241030647817201 9.696101195459011 0 0 0
4171 261 11 0.06 11.933379064602848 11.161989195099876 11.674060852468632 0 0 0
2678 168 6 -0.18 7.887793054501282 9.514992353017702 9.406462182996387 0 1 2
4404 276 4 -0.47 9.820253639151026 13.485490177415116 9.056626187761465 1 2 0
2682 168 10 0.06 7.097190815155367 12.307595226514978 12.428623958314155 0 1 2
4173 261 13 0.06 12.072190729864738 12.158954450893647 9.065395451495318 0 0 0
4409 276 9 0.06 9.990145059225068 13.139951999548815 11.340900496275719 1 2 0
2386 150 2 -0.12 10.379498961371318 12.902599305689785 17.523695725011947 0 3 0
2591 162 15 0.06 5.134216284607302 12.180697094379456 16.275205214051365 0 2 2
4172 261 12 0.06 13.814465523991958 11.73148776114804 9.577124114768766 0 0 0
2579 162 3 0.47 7.08846731943816 9.633548478594326 14.663978289325078 0 2 2
4161 261 1 -0.18 11.454029494688186 9.11884408401245 11.82593450363369 0 0 0
2683 168 11 0.06 7.7848021389408295 13.270692649091044 11.073507977329754 0 1 2
2675 168 3 0.47 6.760551844394827 11.519266282771396 10.404460342672904 0 1 2
4170 261 10 0.06 13.291134356960313 10.117055295677108 11.534646385125187 0 0 0
4408 276 8 0.06 11.700087200672886 13.107062816436146 11.518742171000225 1 2 0
2684 168 12 0.06 8.704918017964529 11.119579263090644 10.579527139054248 0 1 2
2677 168 5 -0.12 7.985325784462352 11.01918282893706 9.77628161059611 0 1 2
2388 150 4 -0.47 9.15557300529976 13.634063923434425 15.606198761177346 0 3 0
2592 162 16 0.06 6.442297952531006 11.400548507511779 17.019888475614955 0 2 2
2674 168 2 -0.12 6.905503603080495 12.707207228590708 11.372013244335914 0 1 2
2686 168 14 0.06 7.096188172698884 9.312688212470034 8.603656877974148 0 1 2
4165 261 5 -0.12 12.922450096444432 11.40497807982499 9.07047946966743 0 0 0
2673 168 1 -0.18 5.620381656783333 13.5717560486815 11.37322502279476 0 1 2
4169 261 9 0.06 10.529297088376003 9.013479015293786 11.342966890558383 0 0 0
2580 162 4 -0.47 7.879677170420408 9.201101322649173 15.473944911142112 0 2 2
2676 168 4 -0.47 5.674947205827519 10.946652421615578 10.304631593123222 0 1 2
2387 150 3 0.47 10.12362138947991 13.69200256436799 16.250720608030278 0 3 0
4402 276 2 -0.12 10.941048112753595 14.862607982436954 10.590561621631483 1 2 0
4403 276 3 0.47 10.482303690731001 14.478334336876522 9.153515501665554 1 2 0
4164 261 4 -0.47 11.797357031244939 9.280507002702082 9.08211457706823 0 0 0
2685 168 13 0.06 8.297414064799852 11.661138332158759 8.948666896880974 0 1 2
2393 150 9 0.06 8.870600550626296 11.534475781621683 16.787497599577893 0 3 0
2155 135 11 0.06 14.305287438516844 13.629308442146897 14.89073370954336 0 1 -1
2582 162 6 -0.18 5.768216138259423 11.30999193915826 16.14427008309781 0 2 2
2394 150 10 0.06 11.386364536169935 12.432411736182209 17.387827637428348 0 3 0
2385 150 1 -0.18 9.329418039584814 11.776609920039744 17.758883484407043 0 3 0
2578 162 2 -0.12 6.453837946744106 8.72237786394946 13.59699715067653 0 2 2
2688 168 16 0.06 8.810331472193226 9.31848930773991 8.980088017857494 0 1 2
3972 249 4 -0.47 14.64144674651437 13.278195150211186 17.330636346639615 4 1 -1
2396 150 12 0.06 11.919109852667951 14.357599266852755 15.122861598734747 0 3 0
2587 162 11 0.06 6.35168936682887 9.40276686932886 12.79648397391701 0 2 2
2679 168 7 0.06 5.574196698459017 14.108277444567552 10.425468173504726 0 1 2
2581 162 5 -0.12 6.514003806856065 11.062396042199392 14.768155399649759 0 2 2
2680 168 8 0.06 5.655537606861181 14.346817966934777 12.09576554447785 0 1 2
2589 162 13 0.06 7.2731541222258915 11.833660015164853 14.661760773113055 0 2 2
3625 227 9 0.06 5.328033334798834 12.72039789808201 8.178223642145975 0 2 1
2389 150 5 -0.12 11.157336665106808 14.711517457037449 15.82405612062485 0 3 0
4167 261 7 0.06 11.250750095785651 9.284378564809554 12.845128404159041 0 0 0
2687 168 15 0.06 7.695065505593644 8.857744503197276 10.275971709284141 0 1 2
2364 148 12 0.06 14.966157311894362 14.287197454482644 10.686415359686551 1 -1 0
2590 162 14 0.06 5.040455295424772 10.51640394715942 16.376636712676095 0 2 2
2365 148 13 0.06 15.069347614758444 13.983337514397833 8.949222298716936 1 -1 0
2776 174 8 0.06 13.8241054403468 21.183686895984497 16.12409854229756 -1 -1 -2
2770 174 2 -0.12 12.288820925256356 21.252370060750224 14.527885418700272 -1 -1 -2
1741 109 13 0.06 14.632745748028166 21.15571605084561 10.760439014205776 0 -2 2
3835 240 11 0.06 6.566339157670364 16.13037873509851 17.647067600790034 1 1 1
3831 240 7 0.06 5.7979273919246195 18.092082424036533 15.44274461881565 1 1 1
4876 305 12 0.06 13.87006251270644 18.620823800865097 14.673819156970216 0 0 -1
1739 109 11 0.06 12.570727273904762 21.0754241935677 8.419521466515338 0 -2 2
4066 255 2 -0.12 5.134991230935439 18.389266493784497 12.767358842930166 1 -2 1
3833 240 9 0.06 5.4578156260881165 16.374461390644868 15.563680413162295 1 1 1
2778 174 10 0.06 12.394981217664547 20.212250396056135 14.072302684159478 -1 -1 -2
4410 276 10 0.06 11.994908369292988 15.279166747385434 10.651941494373299 1 2 0
4405 276 5 -0.12 11.061347068995612 15.284886886849758 7.994694571391296 1 2 0
2781 174 13 0.06 9.657630040018898 20.48168442033359 13.979708982777467 -1 -1 -2
4413 276 13 0.06 10.808626170683006 16.318711892636323 8.07859129995873 1 2 0
2780 174 12 0.06 10.28415678511347 19.276359514309675 15.069397708997686 -1 -1 -2
2390 150 6 -0.18 10.578393568355033 15.948809750220185 15.132842123811173 0 3 0
2400 150 16 0.06 9.798583084541113 16.470406767200792 15.715282439387481 0 3 0
4076 255 12 0.06 5.819851643034528 20.98830843963376 12.032738289239655 1 -2 1
2398 150 14 0.06 10.136600109129736 15.74888700067677 14.15816960740434 0 3 0
4880 305 16 0.06 14.28449697217077 16.61196442754416 15.897524787497408 0 0 -1
3826 240 2 -0.12 6.62693199310245 17.128820785841114 17.190594967116134 1 1 1
3825 240 1 -0.18 5.545874007949291 17.3005012828641 16.152426194517364 1 1 1
2782 174 14 0.06 8.976499022237103 20.182874269272652 16.95616384583157 -1 -1 -2
2774 174 6 -0.18 8.733282419673596 20.33578021447363 15.93823396708694 -1 -1 -2
346 22 10 0.06 5.795636502156005 18.071028507598882 9.496172685564343 -1 0 2
2783 174 15 0.06 8.059268548729516 19.546650669536223 15.618351465094833 -1 -1 -2
347 22 11 0.06 5.289178158655984 16.433805536537655 9.2129550605543 -1 0 2
337 22 1 -0.18 7.464679778127514 16.652230871505786 9.851997826392788 -1 0 2
4411 276 11 0.06 10.23776945520974 15.590916642020076 11.006017417710742 1 2 0
4077 255 13 0.06 6.75318772695622 20.48793521421031 13.485844800100384 1 -2 1
2397 150 13 0.06 11.70367918864928 15.187089153134675 16.686902260873957 0 3 0
345 22 9 0.06 7.673872596572158 15.583283073129735 9.800101921543824 -1 0 2
448 28 16 0.06 11.52227611030014 18.716633085369843 17.524904819554536 -1 1 1
4870 305 6 -0.18 15.017737377869532 16.804403238682994 15.107842660546801 0 0 -1
1374 86 14 0.06 14.67842891090361 19.312141689446605 8.146757208038942 0 2 0
4866 305 2 -0.12 13.367340746686946 18.57905967017205 11.893187674887777 0 0 -1
4871 305 7 0.06 11.258157989732602 18.78047878866154 12.359814143991466 0 0 -1
4867 305 3 0.47 13.809583056409053 17.491132520859555 12.861981720580133 0 0 -1
4865 305 1 -0.18 11.897323754351703 18.544938994380306 11.418825095510744 0 0 -1
4869 305 5 -0.12 14.528534723710838 17.952457794837535 14.109555209799954 0 0 -1
4875 305 11 0.06 13.996897409853648 18.610846853065446 11.04986306863261 0 0 -1
2596 163 4 -0.47 5.333115831024675 21.160204791063705 9.78667631868771 3 -1 1
1737 109 9 0.06 10.267697824425053 20.808303113716242 9.084786599524687 0 -2 2
4873 305 9 0.06 11.638031191050075 19.278644059330517 10.681804981469321 0 0 -1
4872 305 8 0.06 11.75495695020862 17.620717077162823 10.999735426704731 0 0 -1
338 22 2 -0.12 6.1622508598999035 17.133545977369142 9.050651699393514 -1 0 2
4868 305 4 -0.47 13.434953701750054 16.30213728743007 12.756772741131234 0 0 -1
4874 305 10 0.06 13.576137415949077 19.507974687306778 12.342749137908303 0 0 -1
344 22 8 0.06 8.331867026005881 17.17431304611216 9.498641266162396 -1 0 2
4069 255 5 -0.12 5.832133481276277 20.81156898634211 13.111275983640454 1 -2 1
2773 174 5 -0.12 9.997967816475096 20.297421522931778 15.039451439464704 -1 -1 -2
2399 150 15 0.06 11.341547427276332 16.706608213791974 15.03560715140932 0 3 0
2771 174 3 0.47 11.16787260682253 21.09986440491431 15.555415553083739 -1 -1 -2
343 22 7 0.06 7.2456687491961915 17.036364085148094 10.877015886961072 -1 0 2
446 28 14 0.06 12.928656284840914 17.63270197073777 17.53133339231504 -1 1 1
4075 255 11 0.06 6.1214075160985 18.14162784632404 13.05104286695763 1 -2 1
4074 255 10 0.06 5.147114642457247 18.59778190490517 11.677744134506762 1 -2 1
3834 240 10 0.06 7.6074723547765934 16.97029960935006 16.804430919773743 1 1 1
2784 174 16 0.06 8.256539238858766 21.264799676135652 15.915859836477892 -1 -1 -2
4789 300 5 -0.12 13.149813940543408 12.191606101069992 24.862833577552518 1 1 2
4797 300 13 0.06 14.077711867798072 12.73206889324461 25.133226625219038 1 1 2
4787 300 3 0.47 12.20723428177314 12.05739554537486 26.08758647692962 1 1 2
4790 300 6 -0.18 12.492425853619796 13.046185116579277 23.759360669218857 1 1 2
4788 300 4 -0.47 11.627479264761774 13.015985822586849 26.613606289684483 1 1 2
4785 300 1 -0.18 13.408281180262891 9.904277074083238 26.984475605898233 1 1 2
4786 300 2 -0.12 12.076998807359942 10.66714815698248 26.719375951051024 1 1 2
4796 300 12 0.06 13.232511934919872 11.170914225161756 24.47722983952359 1 1 2
4794 300 10 0.06 11.5176890841147 10.790611837890737 27.614449141262778 1 1 2
4798 300 14 0.06 11.46862375421172 12.593594740745882 23.48457298493147 1 1 2
4799 300 15 0.06 13.086292844405166 13.204652790376862 22.824923789582673 1 1 2
2974 186 14 0.06 6.155926573853819 10.991623548710475 25.145132745829343 -1 0 0
4208 263 16 0.06 6.826891285941609 9.69107535894786 20.539622779694664 2 -1 1
4203 263 11 0.06 10.728716976056159 10.337503715383624 23.38460811321894 2 -1 1
4196 263 4 -0.47 9.261879077576424 11.070254842240566 21.249889372834115 2 -1 1
2277 143 5 -0.12 13.568266437876886 10.702763667096951 20.382461561252182 -2 1 2
2906 182 10 0.06 5.154663443340849 13.80979002695626 22.966684935250917 0 0 -1
2905 182 9 0.06 6.393747937959118 12.226979064933925 20.6128994558781 0 0 -1
2286 143 14 0.06 11.696964568690227 11.582324268076457 21.129054297742407 -2 1 2
2287 143 15 0.06 11.530053111474775 10.644011980893211 19.64383193996244 -2 1 2
4193 263 1 -0.18 8.877830541319103 10.447693327236736 24.400883457425234 2 -1 1
2275 143 3 0.47 13.581082085547196 9.632188013155966 21.37737313782518 -2 1 2
2904 182 8 0.06 7.175056188947641 12.679458595868997 22.081057488756645 0 0 -1
4201 263 9 0.06 8.233668849523552 11.328583820691428 24.10189664877104 2 -1 1
4194 263 2 -0.12 9.756301049749748 9.824994818045608 23.270430344262735 2 -1 1
4199 263 7 0.06 9.56042777277899 10.727379875915048 25.161549774883497 2 -1 1
2276 143 4 -0.47 12.60120609638931 8.941937304518046 21.676422332135157 -2 1 2
2976 186 16 0.06 6.902530896373172 11.923262376600471 26.333735368908282 -1 0 0
2966 186 6 -0.18 6.1185807458267885 11.219011403663163 26.19270865233555 -1 0 0
2903 182 7 0.06 5.946787102765482 11.404517093296828 22.209646697865267 0 0 -1
2278 143 6 -0.18 12.189315088456194 11.300050645484678 20.11614758084739 -2 1 2
4800 300 16 0.06 12.33251181750315 13.958479035334495 24.211878410213174 1 1 2
3975 249 7 0.06 14.107946296219751 13.785652145777853 20.083211717708927 4 1 -1
2285 143 13 0.06 14.29400395615437 11.378103534866687 20.84519374126328 -2 1 2
2897 182 1 -0.18 6.194920600173862 12.36571163652477 21.66036265688046 0 0 -1
4195 263 3 0.47 9.171625616229072 10.00528773922305 21.886922107186823 2 -1 1
4200 263 8 0.06 8.209639284524787 9.594451695314946 24.754541281306253 2 -1 1
2288 143 16 0.06 12.345568418020946 12.252847052413438 19.51653290406782 -2 1 2
3403 213 11 0.06 9.691888173066534 14.816199484997249 25.868501615288107 3 2 -1
440 28 8 0.06 10.826846912659498 13.894719835449125 20.984357109419264 -1 1 1
2391 150 7 0.06 8.487392460592373 12.09134986273786 18.31663483510596 0 3 0
2898 182 2 -0.12 5.123776154307379 13.501824336055986 21.96723980539936 0 0 -1
4795 300 11 0.06 11.460362720828364 10.062929353274264 26.01251883903732 1 1 2
2284 143 12 0.06 14.098054268944681 10.257669562356364 19.456502508976705 -2 1 2
2392 150 8 0.06 9.758457584846237 10.94427825005709 18.24772099586344 0 3 0
4198 263 6 -0.18 7.40352578016637 8.849574273512971 20.22311215807718 2 -1 1
2274 143 2 -0.12 15.061806323599408 9.349048773912543 21.871571782801766 -2 1 2
4197 263 5 -0.12 8.484039164249511 8.757742065145452 21.264776225018288 2 -1 1
3969 249 1 -0.18 14.91835269571898 14.41220884315165 19.964111732082827 4 1 -1
433 28 1 -0.18 10.457316702096875 14.883382135812859 21.124096130027514 -1 1 1
439 28 7 0.06 10.174307844845387 14.74514461175109 22.200857780203453 -1 1 1
4207 263 15 0.06 7.942749864927944 9.0974380649716 19.256481140298348 2 -1 1
4792 300 8 0.06 13.275976852366348 9.034299481034392 27.59355729794701 1 1 2
4791 300 7 0.06 13.832208816302032 9.592895843557406 26.046758620836666 1 1 2
2395 150 11 0.06 10.370681044928013 13.587057450049329 18.382857598016628 0 3 0
2975 186 15 0.06 6.352647715431207 10.356123889857239 26.75912696084659 -1 0 0
4793 300 9 0.06 14.139270092134021 10.498794266863014 27.505734902653117 1 1 2
2899 182 3 0.47 5.364984216811075 14.78742990349819 21.181819032991996 0 0 -1
4202 263 10 0.06 10.086509439282029 8.828841063244916 23.44295624811597 2 -1 1
5436 340 12 0.06 13.668383990344728 14.272113328251505 27.548736006468598 1 3 0
3977 249 9 0.06 15.064565267330599 14.891061492856764 20.94825293993013 4 1 -1
2175 136 15 0.06 8.021772749435264 20.668377768633825 24.250549396552763 0 0 0
1575 99 7 0.06 5.372416678427801 15.3571306559633 26.14312215253709 -2 -3 -3
3399 213 7 0.06 10.17596084652794 17.81643533025799 26.153334807157446 3 2 -1
1479 93 7 0.06 12.991191790406072 20.21204472608553 26.01835870642971 0 4 -3
3396 213 4 -0.47 8.326527192925166 17.062197267001714 27.74972050964304 3 2 -1
2659 167 3 0.47 14.845563726789836 18.381988792946704 23.238985475015113 -2 -4 0
1580 99 12 0.06 5.814349475956136 19.833036333886273 24.631749419874065 -2 -3 -3
443 28 11 0.06 11.724018281123783 16.57036035073957 21.830581754179647 -1 1 1
436 28 4 -0.47 10.746828263884463 16.379773733057363 18.668090744015725 -1 1 1
2900 182 4 -0.47 6.518235938041711 15.011713794356162 20.931921525301227 0 0 -1
3828 240 4 -0.47 6.068300134951945 19.250742542393525 18.230662387657926 1 1 1
1570 99 2 -0.12 5.40812926826201 17.498604639200387 25.36341553796356 -2 -3 -3
2661 167 5 -0.12 14.143518675355018 17.107636961019363 23.78069170183297 -2 -4 0
3395 213 3 0.47 8.849399704108993 15.960787401562932 27.628052028909227 3 2 -1
3401 213 9 0.06 11.510468498838133 16.73301896542491 25.627131529400728 3 2 -1
2164 136 4 -0.47 11.08513790374115 20.249872185273134 22.07289356457328 0 0 0
2668 167 12 0.06 13.703329209520886 16.561714082983446 22.987252994134607 -2 -4 0
445 28 13 0.06 11.77699497412879 18.82913120914126 20.04011833258284 -1 1 1
3829 240 5 -0.12 7.528076500861595 17.87670523954626 19.55099316728385 1 1 1
2671 167 15 0.06 14.552162450497468 15.158693398563273 24.82011798088226 -2 -4 0
3830 240 6 -0.18 7.767907975253317 18.989492113185925 20.559944092148584 1 1 1
4769 299 1 -0.18 7.734882911163101 20.380615055283805 27.506845874253173 -1 -2 1
1579 99 11 0.06 5.880109958238066 18.06985624129863 26.161963744432825 -2 -3 -3
435 28 3 0.47 11.412083583552251 16.73684231267366 19.662974124528542 -1 1 1
1473 93 1 -0.18 12.091204711656218 20.21862772196146 26.475078810710443 0 4 -3
2174 136 14 0.06 9.132066315744066 19.457721364198534 23.587278113949086 0 0 0
3402 213 10 0.06 10.782717821507388 15.189770750573361 27.129108076621737 3 2 -1
3837 240 13 0.06 6.969586170914642 17.22572532930586 20.06575825542358 1 1 1
4776 299 8 0.06 7.105180915081387 20.449331898603862 26.610369779405605 -1 -2 1
438 28 6 -0.18 12.474544518172884 18.475709501562942 18.046715030436946 -1 1 1
2669 167 13 0.06 13.332167865409051 17.336749182359625 24.477495813042932 -2 -4 0
3394 213 2 -0.12 9.961354886958336 15.621882805235588 26.57111373117193 3 2 -1
3838 240 14 0.06 8.503517772460556 19.785424847239447 20.178145233289072 1 1 1
2166 136 6 -0.18 9.006183043886143 20.49702804571389 23.92491770433073 0 0 0
3839 240 15 0.06 8.192789079157496 18.57523601784409 21.498598583089635 1 1 1
1578 99 10 0.06 6.0641152693689016 17.196340450981708 24.564127142271637 -2 -3 -3
3836 240 12 0.06 8.447056454612854 17.47390062941192 19.210201461606943 1 1 1
444 28 12 0.06 13.17372660149408 17.74906036959267 19.865838154423095 -1 1 1
2168 136 8 0.06 11.642309595612874 21.17080118820041 19.646577106713238 0 0 0
2176 136 16 0.06 9.620943967370337 20.520956590034373 24.883682849280188 0 0 0
3976 249 8 0.06 14.56875218789653 15.215445705334012 19.30246125028102 4 1 -1
3840 240 16 0.06 6.796564070173117 19.477978659676435 20.70474957230153 1 1 1
2666 167 10 0.06 13.760510031249135 18.917759394087863 21.44875622081051 -2 -4 0
1481 93 9 0.06 11.378170417622908 19.55631017060101 25.834900818441756 0 4 -3
441 28 9 0.06 9.584468932489123 15.101255254693777 20.502435751658414 -1 1 1
437 28 5 -0.12 12.261644479145732 18.01014749032938 19.507403265660727 -1 1 1
2667 167 11 0.06 12.976739882259423 19.47655623369703 22.958375913620685 -2 -4 0
3400 213 8 0.06 10.009298340094805 16.761425946223355 24.673451842510488 3 2 -1
442 28 10 0.06 12.492292638500068 15.390117553381728 20.58207734885574 -1 1 1
2657 167 1 -0.18 14.542202225538333 20.79843210034617 22.39575857273276 -2 -4 0
3827 240 3 0.47 6.704111612335588 18.233449956097886 18.327293194333862 1 1 1
3393 213 1 -0.18 10.453855710876173 16.832608813006857 25.724601728742556 3 2 -1
434 28 2 -0.12 11.609773792192364 15.927925403168839 20.92694336191865 -1 1 1
2658 167 2 -0.12 13.950156489897164 19.376653854617807 22.446788732877486 -2 -4 0
4775 299 7 0.06 8.553542146898776 19.816121774033768 27.17934559024316 -1 -2 1
937 59 9 0.06 15.027522582688214 18.663236166985413 19.65171560284979 -1 1 0
1584 99 16 0.06 5.219800063265543 20.44837277686785 22.613786473207 -2 -3 -3
2662 167 6 -0.18 15.062546110420291 16.122658540080963 24.50365379194501 -2 -4 0
447 28 15 0.06 13.22686183395041 19.245566612498706 17.94604030701852 -1 1 1
3205 201 5 -0.12 8.295863930202447 10.452914476622137 30.6016789323613 1 0 4
1466 92 10 0.06 8.093531023356212 13.693062448556969 37.14339955527188 0 3 -1
5269 330 5 -0.12 12.178216025479554 12.454127534666126 33.75724260101538 0 0 1
5270 330 6 -0.18 13.60407047300227 12.901300152273109 33.91910344753717 0 0 1
5267 330 3 0.47 11.968880402891047 10.961984593332406 34.155442477169494 0 0 1
5277 330 13 0.06 11.856101321635501 12.544229725303795 32.71891307426024 0 0 1
5278 330 14 0.06 14.388920756871444 12.329651446269269 33.37377072148587 0 0 1
2964 186 4 -0.47 5.728604295154144 11.926684173124535 28.876634800063073 -1 0 0
782 49 14 0.06 13.521894768577864 11.590114356261536 29.447215446327313 1 -2 -1
3404 213 12 0.06 9.313362552209417 14.192215841843062 28.861686845076328 3 2 -1
5272 330 8 0.06 10.84876799808481 9.511863275771375 36.321491083679405 0 0 1
1457 92 1 -0.18 9.72586403892275 12.514904726105105 37.67717319196276 0 3 -1
5276 330 12 0.06 11.534290058314923 13.089760402556372 34.436989552493 0 0 1
3210 201 10 0.06 6.07698085471039 10.089819766611281 31.881278325861317 1 0 4
5268 330 4 -0.47 12.948169338638696 10.24257785148963 34.39170170305558 0 0 1
5274 330 10 0.06 9.852460279491096 11.13549599058932 34.852928465575445 0 0 1
3408 213 16 0.06 7.348906243425526 14.268993066567315 30.460222847016446 3 2 -1
3201 201 1 -0.18 6.269190670661781 10.89905713043402 33.98107662026445 1 0 4
5266 330 2 -0.12 10.533370286558114 10.39422673272382 34.41960920237538 0 0 1
3207 201 7 0.06 5.580070769355413 10.206893398074296 34.43787695696166 1 0 4
5280 330 16 0.06 13.762093606950891 14.002026375504954 33.57430116574494 0 0 1
3206 201 6 -0.18 9.157899027332181 11.174878882398664 29.737438821249278 1 0 4
5426 340 2 -0.12 13.1919784471579 14.694624459302249 30.649060558915636 1 3 0
3209 201 9 0.06 7.055874679967663 11.176515743380047 34.64342532890842 1 0 4
5434 340 10 0.06 13.29527192173638 13.671858059866038 30.585950199992205 1 3 0
5279 330 15 0.06 13.96788070432705 12.89253363227268 34.93647305465039 0 0 1
3211 201 11 0.06 7.279626524493681 9.339005412463615 32.77404559171423 1 0 4
3397 213 5 -0.12 8.452914234308919 14.814307037686302 28.56292343543839 3 2 -1
3202 201 2 -0.12 6.808885236702649 10.291502019073853 32.67756747354455 1 0 4
784 49 16 0.06 12.47872638741891 10.325656016686823 29.783709403435857 1 -2 -1
865 55 1 -0.18 9.328822562374807 14.598160149107425 34.53429273534108 -1 -1 1
3213 201 13 0.06 8.728207594017956 9.451985267268483 30.71900890082875 1 0 4
781 49 13 0.06 14.347862063265099 9.008917563691002 29.90815795213757 1 -2 -1
783 49 15 0.06 13.006977874049799 11.41293568312561 31.05376677153095 1 -2 -1
1459 92 3 0.47 7.373782702564753 11.686901664224107 37.35170411433981 0 3 -1
1468 92 12 0.06 5.477489861939202 11.4414225231303 36.38252270418109 0 3 -1
871 55 7 0.06 8.305107144915013 14.327892287292174 34.644677983439415 -1 -1 1
3203 201 3 0.47 8.002032844649413 11.017854088051081 31.98371269435814 1 0 4
872 55 8 0.06 9.795439850002698 14.142501723692611 35.311069495750594 -1 -1 1
5433 340 9 0.06 11.34222598094555 14.769958705350696 31.806561595855634 1 3 0
3214 201 14 0.06 10.01304437020058 11.622578565671843 30.218434813006233 1 0 4
774 49 6 -0.18 13.34845414897744 10.822641860110416 30.208230361952054 1 -2 -1
5431 340 7 0.06 11.012995509260907 14.816412326488592 30.091395037561878 1 3 0
873 55 9 0.06 9.653406090400736 14.250568587994177 33.43132812992628 -1 -1 1
1460 92 4 -0.47 7.869223632178071 10.550960391988756 37.18477786961354 0 3 -1
1463 92 7 0.06 9.99644437455802 12.34664561054857 36.627881145062524 0 3 -1
3359 210 15 0.06 11.957239916230083 14.848839837584041 37.3512480382188 0 0 0
3360 210 16 0.06 13.692904157229535 14.831636485812815 36.60661481905424 0 0 0
3204 201 4 -0.47 8.701529824487794 11.861549247308927 32.511688643498374 1 0 4
3212 201 12 0.06 7.273928075983623 10.345200853043501 30.158327182487717 1 0 4
5275 330 11 0.06 10.06861939682685 10.08013009306356 33.527677071814324 0 0 1
1461 92 5 -0.12 5.84458152392327 11.992956291708467 37.2378190772619 0 3 -1
3358 210 14 0.06 12.30465258180062 14.729412379537294 35.63923543579669 0 0 0
4237 265 13 0.06 5.0909598171038395 14.89569974747344 32.84741695582508 -2 0 1
3215 201 15 0.06 8.6511195284648 12.028995701846878 29.315006660995625 1 0 4
3216 201 16 0.06 9.562927883446513 10.536990880018958 28.94554617823226 1 0 4
5265 330 1 -0.18 10.49571793763874 9.183000227248472 35.375651429283835 0 0 1
5437 340 13 0.06 14.541907704150852 13.371603060351482 28.74875528178862 1 3 0
3208 201 8 0.06 5.813937672103162 11.825577544888882 33.687049553279145 1 0 4
1243 78 11 0.06 14.830151806951681 8.694112903829605 37.14935140525816 -1 3 0
5271 330 7 0.06 9.47787690678421 8.75989181224877 35.51846122966043 0 0 1
773 49 5 -0.12 14.423259701281596 9.896641027781145 30.54519720699025 1 -2 -1
780 49 12 0.06 14.367942605607517 9.436407918079647 31.593019057893653 1 -2 -1
5429 340 5 -0.12 14.440599453364984 14.408662017103929 28.325608300116908 1 3 0
3405 213 13 0.06 7.809727278684348 14.135128344847617 27.963400207820946 3 2 -1
1469 92 13 0.06 5.700599644711277 13.025700016432719 37.10015205004795 0 3 -1
1896 119 8 0.06 11.117500757108495 20.30417124332241 35.190429386919504 -2 -1 1
1477 93 5 -0.12 12.812482974816742 19.642813924012668 30.30639129195604 0 4 -3
1484 93 12 0.06 13.43725194772763 18.81025289430929 30.261621025901352 0 4 -3
1359 85 15 0.06 14.515143764019083 17.766865806731943 33.122822009278934 -1 -1 -2
4228 265 4 -0.47 5.574935674333928 15.432551202894935 35.9155052474234 -2 0 1
5435 340 11 0.06 13.774361132702099 15.132795708984286 31.414805597867307 1 3 0
3406 213 14 0.06 7.011677260277679 15.919236636954647 29.779737111152713 3 2 -1
2935 184 7 0.06 8.142974773139567 20.0863619198232 36.90208327394512 -1 -1 -2
3398 213 6 -0.18 7.748546925946863 15.15757065704247 29.90302489118203 3 2 -1
3407 213 15 0.06 8.565690849066202 15.545880726859622 30.51533637433846 3 2 -1
1488 93 16 0.06 14.352055770579154 20.74409506516697 31.348206481084297 0 4 -3
1478 93 6 -0.18 13.293872514222414 20.525380441543188 31.357325203478318 0 4 -3
3356 210 12 0.06 13.28232564234353 17.03888785332542 35.47333354774122 0 0 0
5425 340 1 -0.18 11.71031728554472 15.126069907114843 30.879056848868778 1 3 0
876 55 12 0.06 10.407832842266991 17.78962225680148 32.77628805226676 -1 -1 1
1485 93 13 0.06 11.931563965024232 19.105443383130492 30.555601030591035 0 4 -3
1897 119 9 0.06 11.906855732159126 19.959715587012496 36.61830632985769 -2 -1 1
1895 119 7 0.06 12.684610653479464 19.45752378535515 35.09048504459025 -2 -1 1
880 55 16 0.06 8.626107344462257 17.770083171241687 30.98035862725132 -1 -1 1
5428 340 4 -0.47 13.876768329287717 16.509411898484316 29.21075126376762 1 3 0
875 55 11 0.06 9.229179756232126 16.436728069539097 35.571094132472965 -1 -1 1
3350 210 6 -0.18 12.692947969224868 15.203037151832506 36.584820944998334 0 0 0
878 55 14 0.06 9.360530329898126 19.39974374714131 31.26642305540142 -1 -1 1
5427 340 3 0.47 13.850736197375127 15.30459513048098 29.382587396920396 1 3 0
867 55 3 0.47 8.722601119561213 16.75802708553627 33.42864587005488 -1 -1 1
1486 93 14 0.06 12.985581226954446 20.159528451588734 32.3317385749918 0 4 -3
4234 265 10 0.06 6.029333161418828 17.7200493501307 34.263463677627186 -2 0 1
3357 210 13 0.06 11.784266300601516 17.08690859297125 36.52738082179488 0 0 0
870 55 6 -0.18 8.705568296802673 18.613106038613637 31.673342982512697 -1 -1 1
5432 340 8 0.06 11.590121425441856 16.1912137017628 30.96072990942944 1 3 0
4226 265 2 -0.12 5.047341680672228 17.28229486925329 34.40433854872427 -2 0 1
879 55 15 0.06 7.594163068510545 18.953485063453336 31.63387731036329 -1 -1 1
874 55 10 0.06 10.638318327098707 16.278204711078985 34.496272985951336 -1 -1 1
877 55 13 0.06 9.279212933337234 18.742952766464356 33.794258489931714 -1 -1 1
866 55 2 -0.12 9.547750996144583 16.103495787730314 34.55556641974026 -1 -1 1
869 55 5 -0.12 9.352456962632344 18.10581299671754 32.93585207063599 -1 -1 1
868 55 4 -0.47 7.7278096534486025 16.211832576480372 32.92388562492483 -1 -1 1
1475 93 3 0.47 12.799507268509712 20.23375491828829 28.91343564482369 0 4 -3
4777 299 9 0.06 7.125216442556675 19.929709722406333 28.285886236922213 -1 -2 1
1483 93 11 0.06 11.05956019726043 19.40469563386747 28.140683432441932 0 4 -3
1482 93 10 0.06 12.35551420095554 18.489781183036555 27.88014932041597 0 4 -3
3349 210 5 -0.12 12.808752359465231 16.722905627885183 36.44924300250968 0 0 0
2932 184 4 -0.47 5.492300403401256 20.621929536793232 37.173163845134404 -1 -1 -2
1889 119 1 -0.18 12.043384233974507 20.263963126000206 35.62878182095206 -2 -1 1