LAMMPS data file via write_data, version 29 Sep 2021, timestep = 1000000

6048 atoms
28 atom types
5832 bonds
27 bond types
10368 angles
48 angle types
10368 dihedrals
48 dihedral types
3456 impropers
16 improper types

1.6124998995090998 41.387500100492375 xlo xhi
1.6124998995090998 41.387500100492375 ylo yhi
1.6124998995090998 41.387500100492375 zlo zhi

Masses

1 12.011
2 14.007
3 12.011
4 30.974
5 14.007
6 12.011
7 12.011
8 14.007
9 12.011
10 12.011
11 1.008
12 1.008
13 1.008
14 1.008
15 1.008
16 1.008
17 1.008
18 1.008
19 1.008
20 1.008
21 1.008
22 1.008
23 1.008
24 1.008
25 1.008
26 1.008
27 1.008
28 1.008

Pair Coeffs # lj/cut/coul/long/omp

1 0.066 3.5
2 0.17 3.3
3 0.066 3.5
4 0.2 3.74
5 0.17 3.3
6 0.066 3.5
7 0.066 3.5
8 0.17 3.3
9 0.066 3.5
10 0.066 3.5
11 0.015 2.5
12 0.015 2.5
13 0.015 2.5
14 0.015 2.5
15 0.015 2.5
16 0.015 2.5
17 0.015 2.5
18 0.015 2.5
19 0.015 2.5
20 0.015 2.5
21 0.015 2.5
22 0.015 2.5
23 0.015 2.5
24 0.015 2.5
25 0.015 2.5
26 0.015 2.5
27 0.015 2.5
28 0.015 2.5

Bond Coeffs # harmonic/omp

1 382 1.448
2 382 1.448
3 212 1.843
4 212 1.843
5 382 1.448
6 382 1.448
7 212 1.843
8 382 1.448
9 382 1.448
10 340 1.09
11 340 1.09
12 340 1.09
13 340 1.09
14 340 1.09
15 340 1.09
16 340 1.09
17 340 1.09
18 340 1.09
19 340 1.09
20 340 1.09
21 340 1.09
22 340 1.09
23 340 1.09
24 340 1.09
25 340 1.09
26 340 1.09
27 340 1.09

Angle Coeffs # harmonic/omp

1 51.8 107.2
2 43 109.5
3 62 98.9
4 43 109.5
5 43 109.5
6 62 98.9
7 43 109.5
8 43 109.5
9 35 109.5
10 35 109.5
11 35 109.5
12 35 109.5
13 35 109.5
14 35 109.5
15 35 109.5
16 35 109.5
17 35 109.5
18 35 109.5
19 35 109.5
20 35 109.5
21 35 109.5
22 35 109.5
23 35 109.5
24 35 109.5
25 35 109.5
26 35 109.5
27 33 107.8
28 33 107.8
29 33 107.8
30 33 107.8
31 33 107.8
32 33 107.8
33 33 107.8
34 33 107.8
35 51.8 107.2
36 33 107.8
37 62 98.9
38 33 107.8
39 33 107.8
40 33 107.8
41 33 107.8
42 51.8 107.2
43 33 107.8
44 43 109.5
45 33 107.8
46 33 107.8
47 33 107.8
48 33 107.8

Dihedral Coeffs # opls/omp

1 0 14 0 0
2 0 14 0 0
3 0 14 0 0
4 0 0 0.56 0
5 0 0 0.56 0
6 0 0 0.4 0
7 0 0 0.4 0
8 0 0 0.4 0
9 0 0 0.4 0
10 0 0 0.4 0
11 0 0 0.4 0
12 0 14 0 0
13 0 0 0.56 0
14 0 0 0.4 0
15 0 0 0.4 0
16 0 0 0.56 0
17 0 0 0.4 0
18 0 0 0.56 0
19 0 0 0.56 0
20 0 14 0 0
21 0 0 0.4 0
22 0 0 0.4 0
23 0 0 0.4 0
24 0 14 0 0
25 0 0 0.56 0
26 0 0 0.4 0
27 0 14 0 0
28 0 0 0.56 0
29 0 0 0.56 0
30 0 0 0.56 0
31 0 0 0.4 0
32 0 14 0 0
33 0 0 0.56 0
34 0 0 0.56 0
35 0 0 0.56 0
36 0 0 0.4 0
37 0 0 0.56 0
38 0 0 0.56 0
39 0 0 0.56 0
40 0 0 0.4 0
41 0 0 0.56 0
42 0 0 0.4 0
43 0 14 0 0
44 0 14 0 0
45 0 0 0.4 0
46 0 14 0 0
47 0 0 0.56 0
48 0 14 0 0

Improper Coeffs # cvff/omp

1 0 -1 2
2 0 -1 2
3 0 -1 2
4 0 -1 2
5 0 -1 2
6 0 -1 2
7 0 -1 2
8 0 -1 2
9 0 -1 2
10 0 -1 2
11 0 -1 2
12 0 -1 2
13 0 -1 2
14 0 -1 2
15 0 -1 2
16 0 -1 2

Atoms # full

5884 211 4 1.5331 2.3057293163700834 8.690992223723818 6.005501768243151 1 1 0
5887 211 7 0.09645 4.609792390268845 8.781061756403872 4.3251151588558985 1 1 0
1553 56 13 0.080666666667 10.046391457307566 3.066250167154858 5.355308622508863 0 1 0
5900 211 20 0.080666666667 5.000405394925469 8.919148007321642 3.3608014251162603 1 1 0
5893 211 13 0.080666666667 2.63517124119303 5.0573442974129215 6.180586199258762 1 1 0
825 30 13 0.080666666667 4.302579934386543 3.7277502909042584 5.275751017716722 0 1 1
5901 211 21 0.080666666667 5.245742184785911 8.218388300523905 5.061506244772389 1 1 0
823 30 11 0.080666666667 2.741847482003519 3.179677840954006 4.7473483917562085 0 1 1
5902 211 22 0.080666666667 4.528127892691803 9.789387532197393 4.771761839391491 1 1 0
5881 211 1 0.09645 2.8557864828513777 6.094911138165365 6.41599093309795 1 1 0
5899 211 19 0.080666666667 3.665735953703643 6.396319029371184 3.809410390067868 1 1 0
5886 211 6 0.09645 3.014628033600265 7.2479038890449905 3.4561359322290435 1 1 0
820 30 8 -1.187933333333 6.353108928975546 2.0697211135895413 6.162959511793524 0 1 1
813 30 1 0.09645 3.8061657257279387 3.195277184163402 4.52250172162024 0 1 1
5054 181 14 0.080666666667 6.19036768243577 11.051090622816071 6.118403554999441 1 0 0
1551 56 11 0.080666666667 10.389881064970716 3.919051360144489 3.790310931754333 0 1 0
5897 211 17 0.080666666667 3.0216988020057736 7.540949333198838 2.4256431149409776 1 1 0
1541 56 1 0.09645 10.775969912478258 3.576005616418131 4.7411875542315025 0 1 0
186 7 18 0.080666666667 8.48784827156345 7.837347094099565 1.8249440487500368 0 0 0
5882 211 2 -1.187933333333 1.6975358233712612 6.9054959674428 6.053169355235128 1 1 0
822 30 10 0.09645 6.882165283995319 2.709495894339902 4.938461716857572 0 1 1
5892 211 12 0.080666666667 3.7089917325642463 6.275937251594201 5.832885882623204 1 1 0
5885 211 5 -1.187933333333 3.2154668162961544 8.358572688101338 4.310957773734022 1 1 0
824 30 12 0.080666666667 3.9432398725687268 3.718659649626561 3.6332961421887404 0 1 1
840 30 28 0.080666666667 6.401689299019072 3.7063518970390072 4.749470182987468 0 1 1
839 30 27 0.080666666667 7.916397714657305 2.8606850402482653 5.164863619618586 0 1 1
1552 56 12 0.080666666667 11.080711160189393 4.291870806018251 5.4790155346498395 0 1 0
838 30 26 0.080666666667 6.684277762898993 2.005540419914039 4.049219903858304 0 1 1
814 30 2 -1.187933333333 4.213725603550494 1.7472064823241933 4.411515042370465 0 1 1
5898 211 18 0.080666666667 1.9692897130524014 6.869094369225005 3.608464804405249 1 1 0
660 24 16 0.080666666667 5.899662285152882 2.6854987908660792 1.6228676198970362 0 1 1
1754 63 18 0.080666666667 9.1552392066994 6.0398198951183275 10.747596096837665 0 1 0
5925 212 17 0.080666666667 6.172942725104472 10.497033637388638 10.664820823256074 1 1 0
5055 181 15 0.080666666667 6.21744414553088 10.615972575327252 7.815887154473746 1 0 0
5068 181 28 0.080666666667 4.6400998677316405 8.224172763852955 7.28570693177405 1 0 0
5067 181 27 0.080666666667 5.629142633079741 8.924690932016404 8.523707157088705 1 0 0
78 3 22 0.080666666667 7.842495548540363 2.1429037111492084 11.215052820161274 0 0 0
5865 210 13 0.080666666667 2.90086526528608 2.8714367774981224 10.308692384475536 1 1 1
5066 181 26 0.080666666667 4.929500776096065 7.397685922893868 8.760059298440092 1 0 0
5873 210 21 0.080666666667 2.542744950624055 2.293996672528986 7.569707523399204 1 1 1
5891 211 11 0.080666666667 3.289913136579143 6.266588515820236 7.425303967854849 1 1 0
5927 212 19 0.080666666667 7.527263431350751 10.93160477121229 9.664865491012952 1 1 0
1757 63 21 0.080666666667 9.782820913137659 8.017211961129595 10.13977163433294 0 1 0
5050 181 10 0.09645 4.746733457799058 8.34808179403435 8.361783776753024 1 0 0
1709 62 1 0.09645 11.054137929145945 5.554186647654618 7.944391850194211 0 1 0
1726 62 18 0.080666666667 10.373515614725255 3.3931842704740385 9.67262779618554 0 1 0
836 30 24 0.080666666667 6.378301067856673 3.8671745126740023 7.072639487921759 0 1 1
5049 181 9 0.09645 3.497189443143719 8.855598749178665 10.277173950867516 1 0 0
1714 62 6 0.09645 10.710914300004104 2.563573280776226 9.045263139654024 0 1 0
5044 181 4 1.5331 3.6776347521998773 11.057020676914895 8.80474240262062 1 0 0
5853 210 1 0.09645 3.7688867624517717 2.2291062802397983 10.414504396134994 1 1 1
5864 210 12 0.080666666667 3.699879710422461 1.8284311000661317 11.437363106544419 1 1 1
5063 181 23 0.080666666667 4.418212502648158 9.107726302620753 10.864729481305652 1 0 0
5042 181 2 -1.187933333333 4.2344805291836884 10.947170642932628 7.0102216185822135 1 0 0
5048 181 8 -1.187933333333 3.6003900874685066 9.136067294680895 8.88100824960444 1 0 0
1725 62 17 0.080666666667 10.44927356016003 2.810785152273544 8.069690977689474 0 1 0
837 30 25 0.080666666667 7.4866451771542435 2.708680706631443 7.84201735309769 0 1 1
5863 210 11 0.080666666667 4.593501959733301 2.875400535763962 10.290861103752404 1 1 1
5926 212 18 0.080666666667 7.511538540898897 11.471351574400774 11.296256770771953 1 1 0
5064 181 24 0.080666666667 3.4612596018044455 7.725907443035175 10.445060277229585 1 0 0
1721 62 13 0.080666666667 11.457151250527865 6.331044325639153 8.613851983291864 0 1 0
5874 210 22 0.080666666667 1.8512798138925275 3.6428612379148015 8.566217282067674 1 1 1
821 30 9 0.09645 6.532697382746481 2.83218205076904 7.389780059350677 0 1 1
1719 62 11 0.080666666667 10.253902149672632 5.121596119043632 8.548881893564342 0 1 0
5065 181 25 0.080666666667 2.687449168245598 9.333480557972699 10.817029137432755 1 0 0
1758 63 22 0.080666666667 11.443074893480144 8.673585685986083 10.360703045827771 0 1 0
5045 181 5 -1.187933333333 1.85559336039405 11.15653830245618 8.310169748647974 1 0 0
1753 63 17 0.080666666667 10.320125359899244 4.858333548520909 11.428652854835516 0 1 0
1741 63 5 -1.187933333333 11.250880993829218 6.757575519889205 10.852988531120575 0 1 0
1743 63 7 0.09645 10.659343262729045 8.118593368382626 10.807932363213439 0 1 0
835 30 23 0.080666666667 5.805914752337688 2.6494213786084178 8.17664883200846 0 1 1
5043 181 3 0.09645 5.697340008919505 11.205833684225304 7.013551038170636 1 0 0
5914 212 6 0.09645 6.890835258498082 11.278435190671361 10.420183790736475 1 1 0
1742 63 6 0.09645 10.099564228086482 5.934206283672064 11.34161493294534 0 1 0
1720 62 12 0.080666666667 10.671981312557039 5.998977100957413 7.075381235509714 0 1 0
5859 210 7 0.09645 1.6301374473902115 2.6741353827598644 8.078601021283312 1 1 1
59 3 3 0.09645 10.525892338798174 1.6163129851594817 15.603944280465484 0 0 0
5921 212 13 0.080666666667 6.258747695119604 11.397901733480094 12.923636191529974 1 1 0
1931 69 27 0.080666666667 9.971497466327001 7.969662285099802 14.105406992342044 0 1 0
2242 81 2 -1.187933333333 6.877959457685289 3.9781445182083286 15.064424271241073 0 0 0
2251 81 11 0.080666666667 5.950589322187434 5.753997142852972 14.849952920274992 0 0 0
2260 81 20 0.080666666667 3.8674341554402463 3.16371252571415 15.944939292461097 0 0 0
2428 87 20 0.080666666667 3.889420048931287 7.624713222134832 15.670855181377666 0 0 0
1932 69 28 0.080666666667 9.859794887872784 8.15556718690733 15.750407369137655 0 1 0
1914 69 10 0.09645 10.338982145915873 7.484548671626472 15.014541862316806 0 1 0
2241 81 1 0.09645 5.874383086090237 4.749834526936628 14.450941646223304 0 0 0
2243 81 3 0.09645 8.09499045026486 4.71462863654283 14.701894802368562 0 0 0
1756 63 20 0.080666666667 10.424213426112095 8.625469339604619 11.668507374309437 0 1 0
1764 63 28 0.080666666667 11.248908688803317 5.451958046899787 13.761866689850661 0 1 0
2252 81 12 0.080666666667 4.824256161778138 4.468198220538041 14.631998886135339 0 0 0
2255 81 15 0.080666666667 8.973315062985982 4.14273441833458 15.041954998387483 0 0 0
2254 81 14 0.080666666667 8.266495229458897 4.864386630283251 13.703533376404696 0 0 0
5919 212 11 0.080666666667 5.071496882100082 10.186572418870051 13.203578065643821 1 1 0
1926 69 22 0.080666666667 10.320133337446517 10.359094386867017 14.924131096084405 0 1 0
2253 81 13 0.080666666667 6.08910622416731 4.866039295476115 13.374242671257631 0 0 0
2262 81 22 0.080666666667 4.707388177170527 2.368533353141983 14.520585469672715 0 0 0
71 3 15 0.080666666667 10.30818991313356 2.6506713155857424 15.28163102685637 0 0 0
2247 81 7 0.09645 4.492908172324684 2.329937470370934 15.595960196052962 0 0 0
1924 69 20 0.080666666667 10.41050595195747 11.202235362625371 13.343942859455801 0 1 0
5909 212 1 0.09645 5.236277836476012 11.231282153624836 13.09073892844386 1 1 0
1911 69 7 0.09645 10.952897127465006 10.700518211588511 14.196368490216392 0 1 0
76 3 20 0.080666666667 9.025657165218584 2.3829553764456994 12.45320801917638 0 0 0
1930 69 26 0.080666666667 9.86132203444898 6.548092322086292 15.086425915367192 0 1 0
63 3 7 0.09645 8.013943697538188 2.122354403343771 12.313864171104816 0 0 0
1755 63 19 0.080666666667 9.952145816238513 6.278235787202787 12.377196806487145 0 1 0
77 3 21 0.080666666667 7.401816194417878 2.868418307213094 12.745543283418062 0 0 0
2256 81 16 0.080666666667 8.09698872857847 5.7219772939609355 15.146719892670705 0 0 0
5922 212 14 0.080666666667 2.841682606422901 10.602042474269323 12.584894298102784 1 1 0
2426 87 18 0.080666666667 2.9280248488154887 5.5567927318284625 16.249082761038093 0 0 0
2420 87 12 0.080666666667 6.853390718491221 7.0624687892609535 16.26764783997065 0 0 0
2419 87 11 0.080666666667 7.153256799142836 8.502011616466405 17.356877566042552 0 0 0
2415 87 7 0.09645 4.1660905042845995 7.92028295329548 16.689695114150023 0 0 0
2425 87 17 0.080666666667 3.545798700435253 4.750211559102098 17.56674418149862 0 0 0
2424 87 16 0.080666666667 7.338145322590516 6.708053448887016 20.35250474824961 0 0 0
2249 81 9 0.09645 8.855380206037065 4.340811664362709 17.71173384101324 0 0 0
1408 51 8 -1.187933333333 5.852522140825144 9.369026466889219 21.10172546857028 0 0 0
2267 81 27 0.080666666667 7.51999066882061 2.2313611634166026 18.843890532706446 0 0 0
2414 87 6 0.09645 3.423428696699599 5.739280037071713 17.233505137380106 0 0 0
2264 81 24 0.080666666667 8.440457550298397 4.653026954425753 18.637528867887365 0 0 0
2411 87 3 0.09645 7.65143500573069 7.096073562550237 19.388431387404392 0 0 0
1090 39 26 0.080666666667 10.305017494028792 9.685617025312899 19.9251601888398 0 0 0
2431 87 23 0.080666666667 6.043644424208313 5.309692497588294 21.25026394488384 0 0 0
1313 47 25 0.080666666667 10.892498397840845 1.6268448012406531 20.69315837768353 0 0 0
1406 51 6 0.09645 2.1860636183763895 8.415419134129742 20.92923037146825 0 0 0
2244 81 4 1.5331 6.373473813002753 4.024636517556329 16.839837797181236 0 0 0
2423 87 15 0.080666666667 8.627446604633736 6.587154505963597 19.271279001451187 0 0 0
2248 81 8 -1.187933333333 8.077353229292804 3.3009141565392017 17.106708883597044 0 0 0
2433 87 25 0.080666666667 5.702283493258391 3.5969921212491087 20.683235679663266 0 0 0
2427 87 19 0.080666666667 2.690519020845548 6.199791775765927 17.883176387527865 0 0 0
1402 51 2 -1.187933333333 3.833027610686994 10.159078487719656 19.527464102569365 0 0 0
1085 39 21 0.080666666667 9.499422581036399 10.815487149640457 18.40031097198602 0 0 0
1413 51 13 0.080666666667 2.5238639914417873 11.151351068248992 18.207207965670182 0 0 0
1415 51 15 0.080666666667 5.726808154136634 9.932124573889084 18.70162538851634 0 0 0
1092 39 28 0.080666666667 11.229827861847262 8.097973877898898 20.098044338792246 0 0 0
1071 39 7 0.09645 9.972541756295906 10.578139985142332 17.45015118588865 0 0 0
1425 51 25 0.080666666667 7.827212764640961 9.9296249853233 21.060500240549775 0 0 0
2422 87 14 0.080666666667 7.580352408897057 8.178617672692717 19.546050109343263 0 0 0
2436 87 28 0.080666666667 3.2605225479156124 4.199544365216758 20.720237439185595 0 0 0
2416 87 8 -1.187933333333 4.757894004924241 5.173120359018503 19.616503303087615 0 0 0
2265 81 25 0.080666666667 8.861738855830625 5.290060445157588 17.20177246048719 0 0 0
2413 87 5 -1.187933333333 4.524940587781799 6.714965787375606 17.35526157102172 0 0 0
2409 87 1 0.09645 7.24833999703916 7.400961580382742 17.260392541027265 0 0 0
1403 51 3 0.09645 4.8471964065460575 10.592101645867963 18.59519531071823 0 0 0
1086 39 22 0.080666666667 10.135537036432474 9.496596255387487 17.662632191890864 0 0 0
2246 81 6 0.09645 5.044765710681154 1.9653406052475035 17.845302924305923 0 0 0
2421 87 13 0.080666666667 8.281143491112779 7.150462584451998 17.185111360788206 0 0 0
2410 87 2 -1.187933333333 6.7746779053501704 6.596661649736719 18.393267717084747 0 0 0
2412 87 4 1.5331 5.05075779979296 6.988884536369184 19.125208890203687 0 0 0
2263 81 23 0.080666666667 9.894776956005755 4.098626403204822 17.92051694081436 0 0 0
2258 81 18 0.080666666667 5.4009772611034865 2.5809876061520174 18.691531086967856 0 0 0
2432 87 24 0.080666666667 6.686125164069161 4.5741231645243445 19.813042601942534 0 0 0
1414 51 14 0.080666666667 4.611250568174013 10.810925588785413 17.573030519801893 0 0 0
1401 51 1 0.09645 2.703234377643878 11.073359795036492 19.311939426627674 0 0 0
1409 51 9 0.09645 6.935739490808466 10.402366297723962 21.07417999495178 0 0 0
2430 87 22 0.080666666667 3.3913384351313747 8.549101158540171 17.16551751906845 0 0 0
2434 87 26 0.080666666667 2.8280183781862482 5.688261631691741 19.966367416584802 0 0 0
2418 87 10 0.09645 3.6134159423414878 5.269064316088839 20.522921402415925 0 0 0
1069 39 5 -1.187933333333 11.14357442697338 11.37555511502913 17.17240984085535 0 0 0
2250 81 10 0.09645 8.145916575635916 2.167041745699676 17.99491958504381 0 0 0
2417 87 9 0.09645 5.845177892503013 4.652092169892182 20.35936673410828 0 0 0
2257 81 17 0.080666666667 4.0163832677820075 2.149535986382886 17.909741361627034 0 0 0
2245 81 5 -1.187933333333 5.660112388721881 2.2679345021313115 16.5615033140274 0 0 0
1412 51 12 0.080666666667 1.780508256857995 10.679475865865992 19.655494505805905 0 0 0
1074 39 10 0.09645 11.311532909318975 9.188683605383673 19.898280141704795 0 0 0
1417 51 17 0.080666666667 2.3509061528867066 8.290607652353748 19.87649776301252 0 0 0
1404 51 4 1.5331 4.214221578793401 10.245444315918785 21.420558386537667 0 0 0
1424 51 24 0.080666666667 7.000727272795154 11.18522793385235 20.281365687462795 0 0 0
2435 87 27 0.080666666667 3.7364934876641858 5.948458970329814 21.410434077957095 0 0 0
1419 51 19 0.080666666667 1.6609415008331687 7.401942151826775 21.07117291052676 0 0 0
2268 81 28 0.080666666667 9.130186217524354 1.8777008962168615 18.345183281545513 0 0 0
1929 69 25 0.080666666667 11.194695014593213 5.967460300133107 16.68685681123536 0 1 0
1084 39 20 0.080666666667 9.252675300442675 10.560480782750092 16.558432136298396 0 0 0
1312 47 24 0.080666666667 9.82058541778039 2.8113979897812533 21.35122346947149 0 0 0
1416 51 16 0.080666666667 5.243331242675355 11.531999544785732 19.061376450078686 0 0 0
1953 70 21 0.080666666667 9.337309591831934 11.486963059025408 21.48197161107384 0 1 0
2429 87 21 0.080666666667 5.0184351177548985 8.644140483874127 16.5399053145093 0 0 0
1428 51 28 0.080666666667 6.033980331991103 8.910143741932586 23.110448499899697 0 0 0
1427 51 27 0.080666666667 5.65361341619778 7.500492158782667 22.026628845944888 0 0 0
1290 47 2 -1.187933333333 8.211798992787738 2.0699797135720224 23.882807501070893 0 0 0
1481 53 25 0.080666666667 10.598205735995474 8.45705113079346 23.49505160418377 0 0 0
1303 47 15 0.080666666667 6.642876575252319 2.4012644513232093 22.415942433408336 0 0 0
1578 57 10 0.09645 5.0492955518781155 11.298041156357913 24.585204808088054 0 0 0
1421 51 21 0.080666666667 3.183340322121645 7.430151700321062 23.48723535844446 0 0 0
1470 53 14 0.080666666667 9.222334508339983 6.919179427393019 24.57565512257442 0 0 0
1291 47 3 0.09645 7.738089966941956 2.3765415609868987 22.5161975553597 0 0 0
1472 53 16 0.080666666667 8.036162753334896 6.081689909654879 25.457179675816015 0 0 0
1592 57 24 0.080666666667 2.812927208006797 11.167371381980395 25.947061387092514 0 0 0
1482 53 26 0.080666666667 10.632679759068559 4.878035817947588 22.953079734962863 0 0 0
1426 51 26 0.080666666667 7.331467817013135 8.153963808162693 21.973162656447247 0 0 0
1594 57 26 0.080666666667 5.813832988566627 11.120452057596014 23.826579637709646 0 0 0
1484 53 28 0.080666666667 9.736938127102427 6.354128887346942 22.724886020231555 0 0 0
1595 57 27 0.080666666667 4.835276676625005 10.321477700912562 25.052464441015502 0 0 0
2487 89 23 0.080666666667 11.454165600177204 10.232648552207243 25.780394206709534 0 0 0
1302 47 14 0.080666666667 8.168470719291658 3.347855813574065 22.0693836602159 0 0 0
1422 51 22 0.080666666667 2.6117556062264278 9.240172793285879 23.543103368544372 0 0 0
1466 53 10 0.09645 10.722731790716802 5.924731365819502 22.736112652261458 0 0 0
1950 70 18 0.080666666667 10.42930325818327 10.477732147457976 22.767067493625166 0 1 0
1420 51 20 0.080666666667 4.077645083025468 8.891594268610882 23.485006757196743 0 0 0
1300 47 12 0.080666666667 7.989338143795284 4.0495242107397775 24.408293065919906 0 0 0
1587 57 19 0.080666666667 1.9397851000181876 11.146863100497297 22.92827114811685 0 0 0
1289 47 1 0.09645 7.643183305609014 3.081823588399379 24.71689493251048 0 0 0
1301 47 13 0.080666666667 7.831262191009605 2.907666060818353 25.788947739481806 0 0 0
1299 47 11 0.080666666667 6.584743411804931 3.1171062173666426 24.600139967939988 0 0 0
1459 53 3 0.09645 9.06635716805254 6.387392911452854 25.537723996803912 0 0 0
1458 53 2 -1.187933333333 9.998298969947534 5.2415198593813415 25.44494839932777 0 0 0
1410 51 10 0.09645 6.248814872892729 8.40557542760645 22.151753180408853 0 0 0
1292 47 4 1.5331 10.061295033594616 2.3151905017058407 24.146240628112654 0 0 0
1407 51 7 0.09645 3.2284249638302756 8.460822981213955 23.095604597872423 0 0 0
1483 53 27 0.080666666667 11.161625700819663 6.075530290735263 21.784366810762066 0 0 0
1423 51 23 0.080666666667 6.909659865946789 10.975540612417891 21.974328565422766 0 0 0
1297 47 9 0.09645 10.722982796034332 2.162077017347449 21.601900439158175 0 0 0
1304 47 16 0.080666666667 8.002531630149399 1.6458854392337046 21.740954163975864 0 0 0
1471 53 15 0.080666666667 9.220532132571872 7.036040784394371 26.378060221772692 0 0 0
1938 70 6 0.09645 10.988998311733875 11.433432296587116 22.991675672498168 0 1 0
1405 51 5 -1.187933333333 3.4629835633520996 8.534692660953775 21.62228369270541 0 0 0
448 16 28 0.080666666667 1.9106852537452093 1.9018441794370187 24.01313374864685 0 0 0
1308 47 20 0.080666666667 11.32632772468538 1.970806556272599 26.469853492341233 0 0 0
5228 187 20 0.080666666667 8.328310139486423 10.4352080311497 29.000192035073052 1 0 -1
1007 36 27 0.080666666667 5.2660450246265516 2.124259513217577 29.061287230994225 0 1 0
5229 187 21 0.080666666667 6.915708427044791 9.447800521242206 28.493014479310286 1 0 -1
156 6 16 0.080666666667 6.589648061784422 7.1695377680474826 29.107787164912757 0 0 0
142 6 2 -1.187933333333 6.362856544813533 5.524322289380176 30.166355312460507 0 0 0
5213 187 5 -1.187933333333 7.399651548159115 9.53715090267907 30.735502297475417 1 0 -1
5234 187 26 0.080666666667 3.4810728116833194 9.665407154388408 29.5407753437844 1 0 -1
143 6 3 0.09645 7.2118078247170105 6.341601457429145 29.40537008762794 0 0 0
985 36 5 -1.187933333333 9.149909586638692 2.2585608172509555 31.359040949537906 0 1 0
986 36 6 0.09645 9.762295619030258 2.8909759393689907 30.184325036159503 0 1 0
5215 187 7 0.09645 7.7321857473611635 9.489863983906341 29.257153526367702 1 0 -1
295 11 15 0.080666666667 3.179444261635 2.174885705167109 29.47763826215847 0 0 0
999 36 19 0.080666666667 9.114373878927958 2.7749961242340646 29.318035501118725 0 1 0
1467 53 11 0.080666666667 10.23800186783796 5.225721636929149 27.610266078054668 0 0 0
5216 187 8 -1.187933333333 5.23701518112987 10.948380502463792 29.532205156803006 1 0 -1
5236 187 28 0.080666666667 4.456496109149086 9.505405002207283 28.17013921426282 1 0 -1
984 36 4 1.5331 7.351480660443824 2.8615221035731913 31.323915390897902 0 1 0
283 11 3 0.09645 2.1558914764508486 2.4967769004425087 29.514348913815656 0 0 0
1457 53 1 0.09645 9.891702346060438 4.5620855931668025 26.73631158557131 0 0 0
154 6 14 0.080666666667 7.568056730349882 5.918357989013967 28.412090658291635 0 0 0
998 36 18 0.080666666667 9.922523310172208 3.9422145749191757 30.377587185283293 0 1 0
1468 53 12 0.080666666667 10.512495681125866 3.6886635512664587 26.844412763114445 0 0 0
1006 36 26 0.080666666667 6.8516854600525345 2.380291655105445 28.25639738093242 0 1 0
5227 187 19 0.080666666667 9.193109903979266 8.840118711038768 31.29592254491965 1 0 -1
5212 187 4 1.5331 6.478366810598478 11.184318601869574 30.921758336432973 1 0 -1
2489 89 25 0.080666666667 10.875817575752091 8.827931697678114 26.746061541707295 0 0 0
151 6 11 0.080666666667 5.6451599287725545 4.848173130943981 28.295246794400054 0 0 0
152 6 12 0.080666666667 4.525430860098904 5.798456188359113 29.14020441596556 0 0 0
155 6 15 0.080666666667 8.040142295823664 6.70510401334757 30.03446660523639 0 0 0
2476 89 12 0.080666666667 11.438043511672593 7.38821531352646 30.346166710813232 0 0 0
141 6 1 0.09645 5.31444917222821 5.073833794402404 29.328705363986177 0 0 0
474 17 26 0.080666666667 1.7999833766048825 5.830018977639235 29.05088280235558 0 0 0
2475 89 11 0.080666666667 11.114311302407021 8.560103439219237 29.1745152407036 0 0 0
1306 47 18 0.080666666667 9.206597734156107 1.8384472698067218 26.94721803521732 0 0 0
5218 187 10 0.09645 4.497328305259411 9.709707042481831 29.20043615484651 1 0 -1
153 6 13 0.080666666667 4.853536761205684 4.1700474271832695 29.734836334400942 0 0 0
997 36 17 0.080666666667 10.760542832212758 2.5442188191217134 29.958730850465106 0 1 0
2477 89 13 0.080666666667 10.124604867162263 7.184093358153407 29.11019238067457 0 0 0
5230 187 22 0.080666666667 8.375973206597639 8.642843276280411 28.99134351512101 1 0 -1
1469 53 13 0.080666666667 8.885843756682078 4.168557946820645 26.897113890074863 0 0 0
5235 187 27 0.080666666667 5.013907091459094 8.885583964836048 29.640201493199935 1 0 -1
1330 48 14 0.080666666667 11.185759026867752 10.55461298372261 30.429458533573488 0 0 0
2465 89 1 0.09645 11.142068937011407 7.513075211928419 29.318455248975177 0 0 0
990 36 10 0.09645 6.266486561127641 1.7104917335578316 28.926100670856474 0 1 0
5515 197 27 0.080666666667 1.9427060708376356 10.721134351488352 28.77279602384405 1 0 0
294 11 14 0.080666666667 2.2491191028699524 3.6191453725396476 29.29808583562602 0 0 0
5214 187 6 0.09645 8.653569493898788 9.791778114127169 31.407123622414467 1 0 -1
296 11 16 0.080666666667 1.8693708163935079 2.4786501994006476 30.555813543560777 0 0 0
5226 187 18 0.080666666667 9.275893569126117 10.583107653018795 31.008611368924303 1 0 -1
5516 197 28 0.080666666667 1.6695585115982838 10.436019994534092 30.40093470858059 1 0 0
292 11 12 0.080666666667 2.633402376703403 1.6825642835699386 27.157806482356612 0 0 0
178 7 10 0.09645 8.408187237905263 9.163611041081268 35.83850876951392 0 0 -1
194 7 26 0.080666666667 8.29461204083706 8.108808794936659 35.72681841842625 0 0 -1
1002 36 22 0.080666666667 9.970414186058944 3.7103393486948035 32.556670806221675 0 1 0
5210 187 2 -1.187933333333 5.363286510868812 10.145630065174712 31.98514685895023 1 0 -1
167 6 27 0.080666666667 6.569184821600811 7.140406951469429 34.12047899262856 0 0 0
5209 187 1 0.09645 5.932358350331467 9.699947743715416 33.247813090676715 1 0 -1
1202 43 26 0.080666666667 8.792148299182758 6.037034734434577 35.89266365986282 0 0 -1
983 36 3 0.09645 7.149570619073161 2.903962869157234 33.96762865754829 0 1 0
147 6 7 0.09645 3.128537162377037 6.8282314052644075 32.2785742221293 0 0 0
157 6 17 0.080666666667 3.293934785331314 4.063887165022288 31.846114422748048 0 0 0
158 6 18 0.080666666667 4.350843065419443 4.616353568439684 33.155222859473035 0 0 0
196 7 28 0.080666666667 7.42424241912176 9.53196757539294 35.52598225066705 0 0 -1
159 6 19 0.080666666667 5.133226887265659 4.100690529393374 31.850906558384114 0 0 0
150 6 10 0.09645 6.402683739622897 6.1146828424379205 33.92658634708815 0 0 0
1184 43 8 -1.187933333333 10.982421212864123 5.973110186239519 36.35661797272609 0 0 -1
168 6 28 0.080666666667 6.850495207398349 5.508709095878022 34.78087622991131 0 0 0
145 6 5 -1.187933333333 4.193163671825749 5.9137427440333905 31.69960173327951 0 0 0
2 1 2 -1.187933333333 3.054265357837429 2.2981394586986643 35.93711493921087 0 0 -1
1200 43 24 0.080666666667 10.5569022631704 7.416579457930949 34.90773434165038 0 0 -1
5222 187 14 0.080666666667 3.60695086721507 10.402245547330944 33.02553992265547 1 0 -1
994 36 14 0.080666666667 7.992786726432066 3.6590942525859096 34.02193796286934 0 1 0
164 6 24 0.080666666667 8.686552205347319 6.330191541090779 33.45632405677401 0 0 0
1186 43 10 0.09645 9.63139090568516 5.377115043040325 36.00208038556624 0 0 -1
1204 43 28 0.080666666667 9.802012889131584 4.725153143570578 35.1615618122792 0 0 -1
1185 43 9 0.09645 11.416842847973694 6.730416480347856 35.14816073105586 0 0 -1
195 7 27 0.080666666667 9.098728230098068 9.603508386084401 35.07764594111962 0 0 -1
5221 187 13 0.080666666667 5.23389278070426 9.359015128419856 33.95865437108436 1 0 -1
5220 187 12 0.080666666667 6.587843108750334 8.888135689463512 33.11335683782252 1 0 -1
982 36 2 -1.187933333333 7.264583900762556 1.9222743704418226 32.931666663061215 0 1 0
149 6 9 0.09645 8.161792868983724 6.239091203199009 32.50788896329543 0 0 0
996 36 16 0.080666666667 6.177940728774761 3.4822494367064745 33.99526004989294 0 1 0
166 6 26 0.080666666667 5.326759895416249 6.064681320010118 34.00240584915778 0 0 0
5225 187 17 0.080666666667 8.42727567770162 9.967550580909947 32.47116219524907 1 0 -1
1000 36 20 0.080666666667 10.933254124712771 2.2382494044282093 32.34932119691472 0 1 0
5219 187 11 0.080666666667 6.46339391835519 10.561101329155536 33.66534654017256 1 0 -1
987 36 7 0.09645 9.927388702099165 2.618409038073165 32.51185772690149 0 1 0
995 36 15 0.080666666667 7.28299641215195 2.3505383635080737 34.871377498582916 0 1 0
148 6 8 -1.187933333333 6.8131255527789465 5.707179148195367 32.58373423405345 0 0 0
1001 36 21 0.080666666667 9.639620088269018 2.1929519401428603 33.379108042095446 0 1 0
993 36 13 0.080666666667 5.198327162641089 1.7838710333366985 32.418946408769074 0 1 0
5211 187 3 0.09645 4.252922361760772 10.957788282078495 32.40884740234925 1 0 -1
160 6 20 0.080666666667 2.0993615885451637 6.547520032902534 32.297214652746604 0 0 0
161 6 21 0.080666666667 3.135556076745006 7.836658456972715 31.804894798615564 0 0 0
163 6 23 0.080666666667 8.735854221009099 5.500145397482501 31.98498046064129 0 0 0
1201 43 25 0.080666666667 11.378412138303991 6.009754289589819 34.3190949626513 0 0 -1
162 6 22 0.080666666667 3.351993378869139 7.067169177645246 33.31918231427692 0 0 0
146 6 6 0.09645 4.200942195459561 4.5595552259248695 32.11582148256303 0 0 0
165 6 25 0.080666666667 8.264334034433183 7.164299306715145 32.0281625645298 0 0 0
183 7 15 0.080666666667 5.849337584184115 8.170987352139068 36.17038991757984 0 0 -1
1194 43 18 0.080666666667 11.382139407894355 9.468448497683099 36.15958526075609 0 0 -1
1367 49 23 0.080666666667 4.679337788003917 10.978618562228991 35.49994422324708 0 0 -1