LAMMPS data file via write_data, version 29 Aug 2024, timestep = 1000000, units = real

6174 atoms
18 atom types
5831 bonds
17 bond types
10633 angles
31 angle types
13377 dihedrals
39 dihedral types

0.015486720057783288 41.205173279931586 xlo xhi
3.3758594411029215 40.73066055889889 ylo yhi
1.7898775387396917 41.74581246126334 zlo zhi

Masses

1 12.011
2 12.011
3 12.011
4 12.011
5 12.011
6 15.999
7 1.008
8 1.008
9 1.008
10 1.008
11 1.008
12 1.008
13 1.008
14 1.008
15 1.008
16 1.008
17 1.008
18 1.008

Pair Coeffs # lj/cut/coul/long

1 0.066 3.5
2 0.066 3.5
3 0.066 3.5
4 0.066 3.5
5 0.066 3.5
6 0.17 3.12
7 0.03 2.5
8 0.03 2.5
9 0.03 2.5
10 0.03 2.5
11 0.03 2.5
12 0.03 2.5
13 0.03 2.5
14 0.03 2.5
15 0.03 2.5
16 0.03 2.5
17 0.03 2.5
18 0 0

Bond Coeffs # harmonic

1 268 1.529
2 268 1.529
3 268 1.529
4 268 1.529
5 320 1.41
6 340 1.09
7 340 1.09
8 340 1.09
9 340 1.09
10 340 1.09
11 340 1.09
12 340 1.09
13 340 1.09
14 340 1.09
15 340 1.09
16 340 1.09
17 553 0.945

Angle Coeffs # harmonic

1 58.35 112.7
2 58.35 112.7
3 58.35 112.7
4 50 109.5
5 37.5 110.7
6 37.5 110.7
7 37.5 110.7
8 37.5 110.7
9 37.5 110.7
10 37.5 110.7
11 37.5 110.7
12 37.5 110.7
13 37.5 110.7
14 37.5 110.7
15 37.5 110.7
16 55 108.5
17 37.5 110.7
18 33 107.8
19 33 107.8
20 35 109.5
21 33 107.8
22 37.5 110.7
23 33 107.8
24 37.5 110.7
25 33 107.8
26 35 109.5
27 33 107.8
28 37.5 110.7
29 33 107.8
30 37.5 110.7
31 37.5 110.7

Dihedral Coeffs # opls

1 1.3 -0.05 0.2 0
2 1.3 -0.05 0.2 0
3 1.711 -0.5 0.663 0
4 0 0 0.3 0
5 -0.35601 -0.174 0.492 0
6 0 0 0.3 0
7 0 0 0.3 0
8 0 0 0.3 0
9 0 0 0.3 0
10 0 0 0.3 0
11 0 0 0.3 0
12 0 0 0.3 0
13 0 0 0.3 0
14 0 0 0.45 0
15 0 0 0.3 0
16 0 0 0.3 0
17 0 0 0.3 0
18 0 0 0.3 0
19 0 0 0.3 0
20 0 0 0.3 0
21 0 0 0.3 0
22 0 0 0.3 0
23 0 0 0.3 0
24 0 0 0.3 0
25 0 0 0.3 0
26 0 0 0.3 0
27 0 0 0.3 0
28 0 0 0.45 0
29 0 0 0.3 0
30 0 0 0.3 0
31 0 0 0.3 0
32 0 0 0.3 0
33 0 0 0.3 0
34 0 0 0.3 0
35 0 0 0.468 0
36 0 0 0.3 0
37 0 0 0.3 0
38 0 0 0.3 0
39 0 0 0.468 0

Atoms # full

866 49 2 -0.12 8.496806216241186 8.787677899608939 5.1341030280764315 0 0 1
867 49 3 -0.12 10.03268056251057 8.728228099539315 5.524266733320346 0 0 1
2116 118 10 0.06 1.2271274795382041 13.748055565142558 2.265928716637241 0 1 1
875 49 11 0.06 8.119329374452887 7.71551242127227 5.009179297024084 0 0 1
2285 127 17 0.06 4.6120165470862915 8.793888699125896 4.551919369931304 0 1 0
2184 122 6 -0.6830000000000001 4.961015484843428 5.987007104540714 3.808649842764271 0 1 1
2273 127 5 0.145 4.36424672874109 9.41106908999716 3.6252931252893 0 1 0
2196 122 18 0.418 5.183849424581037 6.726780991377996 3.2452406884891936 0 1 1
2272 127 4 -0.12 2.889230987585313 9.638954911322465 3.490183070136959 0 1 0
2274 127 6 -0.6830000000000001 4.8009024614744975 8.685828909674896 2.5158721326635365 0 1 0
1029 58 3 -0.12 0.06348584302531424 7.224229774156623 5.817600980883075 0 -1 1
2279 127 11 0.06 0.7421879516262078 11.4020681322655 3.1642062177135006 0 1 0
1630 91 10 0.06 3.382742281020243 7.714103269269641 10.333905509231615 0 1 1
1035 58 9 0.06 3.4895384577277477 7.234183030346971 6.349455064646214 0 -1 1
4970 277 2 -0.12 7.145115985204598 5.394106262260605 9.27523040043086 0 0 1
2190 122 12 0.06 7.177641189429262 7.211558853093949 2.5846695962446664 0 1 1
2182 122 4 -0.12 7.237901461491832 5.2701693180395175 3.6012694828191494 0 1 1
4978 277 10 0.06 7.619042101990518 6.300869949100122 8.888233923981236 0 0 1
4969 277 1 -0.18 5.651822334456048 5.661947556186015 8.933668370340987 0 0 1
2183 122 5 0.145 6.09794580666841 5.673086178819389 4.602535078319294 0 1 1
4974 277 6 -0.6830000000000001 9.799830711242409 5.331835022441627 6.566907294239024 0 0 1
4984 277 16 0.06 10.031672980754403 6.258923275545008 8.276467172334389 0 0 1
4977 277 9 0.06 5.062235027666408 5.005271479288655 9.643313646085065 0 0 1
871 49 7 0.06 7.681069405512888 9.23077458174381 7.250192208211816 0 0 1
2189 122 11 0.06 9.449572306046798 6.3581291871734305 2.008979120823588 0 1 1
1627 91 7 0.06 2.7979240705924737 5.441805958063426 10.922714956867244 0 1 1
4976 277 8 0.06 5.435330719295353 6.70241109119869 9.103357221648764 0 0 1
1622 91 2 -0.12 2.3916602705927215 7.46161524713804 10.678852642675077 0 1 1
4979 277 11 0.06 7.407235166629087 5.505738090967453 10.340781138081796 0 0 1
4971 277 3 -0.12 7.875918096308806 4.26377247645894 8.58271703123837 0 0 1
1033 58 7 0.06 2.6195114037148146 6.552536577037681 5.036686491612842 0 -1 1
2275 127 7 0.06 0.2691549114179416 8.952561204122997 2.5882489369720543 0 1 0
4001 223 5 0.145 2.520709326738667 3.7816022176910957 2.933936265945765 0 -1 1
4975 277 7 0.06 5.43599147113541 5.4854357850896545 7.835707878998547 0 0 1
2281 127 13 0.06 3.041615011136931 11.372488715402383 2.1848753387448467 0 1 0
2283 127 15 0.06 2.3067105001617056 8.762191228159008 3.4246015219881714 0 1 0
2614 146 4 -0.12 2.968978948346239 14.077728792589998 10.992849484629856 0 0 1
877 49 13 0.06 10.249980162820295 8.205785676776067 6.417145241157963 0 0 1
1037 58 11 0.06 1.6740960097736461 8.747473097644617 6.043656006337361 0 -1 1
2195 122 17 0.06 6.330049355108117 6.519008941860472 5.2373857179238845 0 1 1
5729 319 5 0.145 7.0413189916951575 15.642746237995787 6.794359386784521 1 0 0
1027 58 1 -0.18 2.553528389175877 6.876875313556262 6.100127125569613 0 -1 1
2193 122 15 0.06 8.167485755979888 5.267660845207406 4.182126995193524 0 1 1
2192 122 14 0.06 6.974011679465614 4.223433264125799 3.355358608381968 0 1 1
2271 127 3 -0.12 2.4492081531287866 10.516405124990731 2.240258041630173 0 1 0
1631 91 11 0.06 1.6475229460737184 8.017869068794163 10.236388169124696 0 1 1
1028 58 2 -0.12 1.371746149860341 7.763697692195647 6.470990798461772 0 -1 1
4972 277 4 -0.12 9.423547971219856 4.106332770427481 8.607459268829246 0 0 1
1621 91 1 -0.18 2.008892588483194 5.963043642704665 10.414642850007533 0 1 1
4981 277 13 0.06 7.64450558713469 4.265647319852273 7.524655458990112 0 0 1
2181 122 3 -0.12 7.367072260377296 6.140654930977631 2.3062910999265966 0 1 1
4973 277 5 0.145 10.21197257247046 5.2510081890782185 7.88821864595395 0 0 1
1036 58 10 0.06 1.2685148654582508 7.673630924641423 7.513981635656545 0 -1 1
5158 287 10 0.06 9.50671745621146 15.529066780927419 4.694051980374345 1 2 0
4014 223 18 0.418 4.145927646896548 4.4545305360995195 4.06177783868907 0 -1 1
874 49 10 0.06 8.400129412459188 9.181303451579105 4.169381691196127 0 0 1
2282 127 14 0.06 2.6851040709852536 10.120279241562745 4.409014348744336 0 1 0
1136 64 2 -0.12 1.9054969265585446 10.680580440440423 8.413884018839145 0 0 0
5860 326 10 0.06 9.894705198336 7.465829827339298 10.182922708070432 1 0 0
2625 146 15 0.06 2.7202861956386726 14.985739789261071 11.4432970441269 0 0 1
5159 287 11 0.06 10.207542330830936 15.067278285185509 3.0495920770229037 1 2 0
1034 58 8 0.06 2.3500848765778706 5.9049948447896625 6.590757134811692 0 -1 1
2270 127 2 -0.12 0.9999707700371092 10.988265728791744 2.168164337575678 0 1 0
4002 223 6 -0.6830000000000001 3.6775100124489644 3.5637007375873875 3.8452867796971595 0 -1 1
1141 64 7 0.06 3.421546108812619 9.233681727359905 8.524908831547943 0 0 0
1628 91 8 0.06 1.972086213104774 5.6972895273857365 9.374266416840362 0 1 1
1629 91 9 0.06 1.0514142364615326 5.682344525194283 10.907987921805494 0 1 1
1135 64 1 -0.18 3.251759656285916 10.156512385670549 8.046434035189913 0 0 0
865 49 1 -0.18 7.67194343104786 9.580955457574316 6.19063733611894 0 0 1
2628 146 18 0.418 4.618555581771933 15.066877943512427 8.533280759584915 0 0 1
2616 146 6 -0.6830000000000001 3.978611101136877 15.17868411312842 9.207981130140618 0 0 1
738 41 18 0.418 9.692981083792402 3.566367396827677 5.915320546380172 0 2 0
4362 243 6 -0.6830000000000001 9.991276614341384 15.725221447310501 8.85276240688427 0 1 1
965 54 11 0.06 5.3971383466599185 10.78720323792474 11.235096453710792 0 0 1
1536 86 6 -0.6830000000000001 6.952326640198875 12.287137681283193 2.7572306638130604 0 1 0
960 54 6 -0.6830000000000001 8.394860195800586 13.43187672948721 9.042494461380343 0 0 1
2191 122 13 0.06 6.439130228076081 5.83829916095316 1.831687894222094 0 1 1
1147 64 13 0.06 1.1372741279608087 11.806568073133786 6.57427938580816 0 0 0
2624 146 14 0.06 2.1137188061775514 13.72596320564947 10.450873032005132 0 0 1
2615 146 5 0.145 4.242590788520034 14.13291779810567 10.13204964716064 0 0 1
4012 223 16 0.06 2.146301551875581 4.7819564135661645 3.0353205063541138 0 -1 1
2194 122 16 0.06 5.817329629184953 4.843453627366303 5.176488620233734 0 1 1
5740 319 16 0.06 6.463616754419589 15.682329072641593 5.882764648815355 1 0 0
956 54 2 -0.12 6.152953650639743 10.142243135714992 10.918971084743136 0 0 1
2117 118 11 0.06 1.367198522245959 15.445900978108032 2.477271467938528 0 1 1
1038 58 12 0.06 0.18488843464370674 7.342249734596987 4.809912769832042 0 -1 1
1144 64 10 0.06 1.2724564014984037 9.788815430351594 8.497135563542683 0 0 0
2108 118 2 -0.12 1.0890467929840617 14.576172816281154 2.9807461471847114 0 1 1
2109 118 3 -0.12 1.8516816072135756 14.2579555176938 4.252724802063077 0 1 1
5741 319 17 0.06 7.931405133822041 15.016700840563797 6.592515693038348 1 0 0
873 49 9 0.06 6.617330878088774 9.566468901987038 5.987459820428264 0 0 1
4508 251 8 0.06 10.008547781264538 12.200490069810625 6.135418169966817 1 0 1
2626 146 16 0.06 5.156970882938907 14.316825705456207 10.621475357099383 0 0 1
971 54 17 0.06 9.41489794658362 13.551611211807563 10.78069098233011 0 0 1
2112 118 6 -0.6830000000000001 5.448774011508026 13.18018554967562 4.87869548476276 0 1 1
2121 118 15 0.06 3.767614708768214 15.061265865265426 4.111257701095843 0 1 1
959 54 5 0.145 8.794935222731292 12.827366984536061 10.260552123523752 0 0 1
2124 118 18 0.418 5.816582597563242 13.597103262689402 5.6546900322850995 0 1 1
1145 64 11 0.06 1.9848593748307015 10.906220722509637 9.45705030566254 0 0 0
966 54 12 0.06 7.957659672738019 10.30127710576997 9.839912764228474 0 0 1
5742 319 18 0.418 6.932078171435537 14.526506865731404 8.385210686336176 1 0 0
1548 86 18 0.418 6.471540109149095 12.637215095335614 3.49766558660911 0 1 0
5730 319 6 -0.6830000000000001 6.308998519443282 14.949561747273279 7.813028995381363 1 0 0
872 49 8 0.06 7.861826828755824 10.59456932719216 6.172356217239949 0 0 1
958 54 4 -0.12 7.519375735270481 12.244676530926448 10.841480257904143 0 0 1
1546 86 16 0.06 8.398996392121044 11.208805575458147 3.6412587080478325 0 1 0
1146 64 12 0.06 2.024447604360804 12.69353340440229 7.646590736745313 0 0 0
1534 86 4 -0.12 9.297430009616635 12.024981659512115 2.0181380429490434 0 1 0
957 54 3 -0.12 7.12269973477794 10.955171828855809 10.079880585823537 0 0 1
1142 64 8 0.06 4.196392795664792 10.812702981229886 8.11074611840439 0 0 0
964 54 10 0.06 5.617560652473515 9.499730518915467 10.145195483503777 0 0 1
970 54 16 0.06 9.400097765924201 11.972631868523758 9.984304440627415 0 0 1
2111 118 5 0.145 4.048483973570408 13.075426586984463 4.890480813444022 0 1 1
2122 118 16 0.06 3.8635696111155964 13.328953725517664 5.955725760723767 0 1 1
2284 127 16 0.06 4.954469029048372 10.34258398980373 3.8209947353087736 0 1 0
1137 64 3 -0.12 1.281736668275567 11.922921357013394 7.656649345754286 0 0 0
2123 118 17 0.06 3.61880932997365 12.081230712166592 4.689221671600523 0 1 1
2110 118 4 -0.12 3.3906578391224937 14.10118478651591 3.9765605150500885 0 1 1
2119 118 13 0.06 1.3948924038711419 13.314015670278849 4.620379778793522 0 1 1
969 54 15 0.06 6.856711692114824 13.154624683252935 10.745872700731065 0 0 1
2627 146 17 0.06 4.417766274881491 13.158198040672804 9.643621899387337 0 0 1
1547 86 17 0.06 8.569986290373505 12.990929185746943 3.8922378032943903 0 1 0
1143 64 9 0.06 3.175073308648585 9.893330490752833 6.983381689464508 0 0 0
1535 86 5 0.145 8.329348551784063 12.215516703195888 3.1584506723573416 0 1 0
2120 118 14 0.06 3.4711623425370712 13.851355222022418 2.9565350691069523 0 1 1
2118 118 12 0.06 1.7068897187215186 15.030033475493422 4.979982294759624 0 1 1
967 54 13 0.06 6.551695136900994 11.264450765880234 9.155882192965912 0 0 1
972 54 18 0.418 9.11479575114524 13.958813891647408 8.724019626661907 0 0 1
4982 277 14 0.06 9.62040231089285 4.0212408414552065 9.688929319652583 0 0 1
2623 146 13 0.06 3.783554014112731 12.177158226828299 11.680468392778486 0 0 1
1149 64 15 0.06 0.21253969217107418 12.453659504857473 9.454937537429856 0 0 0
2269 127 1 -0.18 0.15502783747320742 9.745590858443453 1.7922930808703885 0 1 0
4658 259 14 0.06 3.2692890720374814 3.453402295603811 8.349154946939297 1 0 1
3819 213 3 -0.12 7.311544869773913 5.324102392057588 19.427566413456297 0 1 1
3546 197 18 0.418 9.429703723339019 8.479834952811608 16.71071748811075 0 -1 0
2662 148 16 0.06 5.844278973324593 8.017769241877993 17.471934342102927 0 0 0
1624 91 4 -0.12 3.3428213079502753 7.171272339020829 13.080576361812005 0 1 1
2652 148 6 -0.6830000000000001 7.75194058404166 8.326648487641053 16.729066181496783 0 0 0
3208 179 4 -0.12 1.8601868669968245 6.50197583611606 20.039431750583955 1 0 1
2651 148 5 0.145 6.573458053839149 8.852170249301363 17.149891504318816 0 0 0
2664 148 18 0.418 7.574193285766515 7.6082949716907144 16.103344340881492 0 0 0
3821 213 5 0.145 9.629250585882305 5.007982696705919 20.549334013721275 0 1 1
955 54 1 -0.18 6.816831766170557 9.432887217987105 12.107888827971712 0 0 1
162 9 18 0.418 5.935340204051241 6.265042708483591 14.602104046918251 0 0 0
3216 179 12 0.06 3.420427654923174 8.058578116822588 20.126334537324826 1 0 1
3207 179 3 -0.12 3.1262763454238085 7.175060128581437 20.614188256942757 1 0 1
1637 91 17 0.06 2.2201692657793775 7.409362235970646 14.9207522527007 0 1 1
1625 91 5 0.145 3.262513443251852 7.526016000772123 14.617614686148498 0 1 1
1636 91 16 0.06 3.571183082507247 8.515699180797691 14.831578398637458 0 1 1
3210 179 6 -0.6830000000000001 2.816532845558324 6.372859014142835 17.754639859880186 1 0 1
150 9 6 -0.6830000000000001 6.790812485615646 6.693527902962376 14.422096045678398 0 0 0
809 45 17 0.06 8.603353505664817 9.720516719793633 19.376395472590755 0 0 -1
1634 91 14 0.06 3.1010591975755073 6.129148753661205 13.104926246459705 0 1 1
3828 213 12 0.06 7.484898953196128 6.190235963797123 18.76635504756087 0 1 1
160 9 16 0.06 8.295279163357998 6.611980758515404 12.990988975227664 0 0 0
3827 213 11 0.06 5.943846611546286 3.6220457754756574 19.279769605965726 0 1 1
149 9 5 0.145 7.285794655821185 6.148858774897591 13.162332090712372 0 0 0
3090 172 12 0.06 5.014472128603638 14.370792107341833 17.90468445437866 1 0 0
3820 213 4 -0.12 8.604803979676818 4.544358846936618 19.568674826452988 0 1 1
3222 179 18 0.418 2.3382481747330384 7.222112285650143 17.755942430145623 1 0 1
2663 148 17 0.06 6.998318199701625 9.348413852520382 18.11223352340042 0 0 0
3219 179 15 0.06 1.1041443973668128 7.247061572853722 19.879623843603685 1 0 1
3217 179 13 0.06 4.057835333826315 6.583283522359582 20.4345948782814 1 0 1
2648 148 2 -0.12 6.299851235579096 11.957281704033628 14.801650365136945 0 0 0
1626 91 6 -0.6830000000000001 4.04857287257212 6.512555362885772 15.241883500789784 0 1 1
148 9 4 -0.12 7.45263594616153 4.586906126014642 13.419310771563895 0 0 0
3818 213 2 -0.12 6.147507538888699 4.460028293725918 18.7037743165562 0 1 1
900 50 18 0.418 0.1600372137336826 13.000744827337412 19.67970835262038 0 0 -1
157 9 13 0.06 5.561685303956978 4.185578884258397 14.28960637625862 0 0 0
3829 213 13 0.06 6.819077864184729 5.665438940585865 20.324271496136145 0 1 1
3220 179 16 0.06 2.8422370040730494 4.796327182154815 18.941767290291725 1 0 1
1638 91 18 0.418 3.7939889901974184 6.505007919167163 16.13857855281785 0 1 1
3826 213 10 0.06 5.186782774047195 5.077467928218977 18.814424611231495 0 1 1
3209 179 5 0.145 2.192647041210418 5.642904402971366 18.791982444000812 1 0 1
808 45 16 0.06 9.298003491681142 9.767237205255629 20.946039317386397 0 0 -1
888 50 6 -0.6830000000000001 1.0400439307072455 12.888183172612472 20.026092563088092 0 0 -1
158 9 14 0.06 8.045388955731545 4.235505369885026 14.244474284078763 0 0 0
5326 296 16 0.06 3.119547634335217 15.698312971997552 21.580529744795456 1 0 -1
2904 162 6 -0.6830000000000001 1.3270864452197026 8.775666052894174 16.84200899204274 1 0 -1
3218 179 14 0.06 1.3908156246134766 5.788797616991159 20.70251632162253 1 0 1
797 45 5 0.145 9.53211874226285 9.895541901947169 19.904055874024728 0 0 -1
3079 172 1 -0.18 7.651437283182302 14.460101368248127 18.759989360884486 1 0 0
1633 91 13 0.06 1.3902215394390347 7.650232529626168 12.407493126249808 0 1 1
3817 213 1 -0.18 6.514638412652581 4.108649982133219 17.289079382504084 0 1 1
2622 146 12 0.06 4.035102888533118 13.427888580748139 12.775628637292101 0 0 1
5316 296 6 -0.6830000000000001 2.0719202865093935 15.558925325381187 19.933844876979474 1 0 -1
3221 179 17 0.06 1.284391000487961 5.288177756307778 18.37353891100819 1 0 1
3544 197 16 0.06 9.617525280207921 6.606299560599955 15.798533868471772 0 -1 0
161 9 17 0.06 6.611945198848677 6.287729825973374 12.290188916780647 0 0 0
3824 213 8 0.06 6.646760334362846 4.868368092750258 16.527509580994966 0 1 1
962 54 8 0.06 6.101337012501435 8.9635732970364 12.746769441331795 0 0 1
1177 66 7 0.06 4.128118815100643 15.761615571077973 16.074915929664684 -1 0 0
3833 213 17 0.06 9.838250844727877 6.056117479626993 20.488192498706997 0 1 1
2612 146 2 -0.12 2.031819753608464 12.447112706860425 12.934648023729125 0 0 1
2611 146 1 -0.18 2.4754457080606818 11.353800338120593 13.913641775832456 0 0 1
1632 91 12 0.06 2.6559634644479377 8.916322410065273 12.227411363460012 0 1 1
156 9 12 0.06 5.609465080748851 3.8347426365822335 12.579840397926315 0 0 0
5327 296 17 0.06 4.013263155181741 15.309060164597168 20.194590473579954 1 0 -1
963 54 9 0.06 7.434649627408638 10.234364101021313 12.725617827785292 0 0 1
3831 213 15 0.06 9.066469446062992 4.460551955483146 18.62740263165466 0 1 1
3825 213 9 0.06 5.716339701021636 3.4353032310388074 16.985436878887477 0 1 1
3080 172 2 -0.12 6.523118880966591 13.519906282646147 19.248183169156682 1 0 0
2613 146 3 -0.12 3.187164941150064 13.043635773658739 12.091729577685811 0 0 1
5092 283 16 0.06 9.698385532424414 15.42633392442244 12.672000525676207 1 0 0
2916 162 18 0.418 1.696466276603349 9.672514695273644 16.803677223797443 1 0 -1
2618 146 8 0.06 3.0448352416111275 11.932933152253376 14.643674667364433 0 0 1
2655 148 9 0.06 7.559851715417309 13.687324075131947 15.317439767903503 0 0 0
1171 66 1 -0.18 4.622645791559621 15.643890963753313 15.152624039407957 -1 0 0
5328 296 18 0.418 1.7412886274237622 14.708412812640049 20.222727570835826 1 0 -1
3096 172 18 0.418 2.0769703820931587 11.444676318132517 18.838695776983464 1 0 0
2654 148 8 0.06 8.15186539480615 12.73660909582097 13.955909235597806 0 0 0
3094 172 16 0.06 2.5396790530184803 13.243922558003208 17.493247783585986 1 0 0
2660 148 14 0.06 5.8972598568898 9.230011104080877 15.228140422925836 0 0 0
3088 172 10 0.06 6.969279479945956 12.516371713946539 19.350376506799343 1 0 0
3086 172 8 0.06 8.203125499993797 14.045481726124576 17.87998861190954 1 0 0
806 45 14 0.06 9.427145194880627 11.954514402842166 19.494435352894357 0 0 -1
2620 146 10 0.06 1.4424567787867153 13.161471124070303 13.602644038297626 0 0 1
898 50 16 0.06 0.40598241092969417 11.518209300403893 21.348396032591424 0 0 -1
1179 66 9 0.06 4.289045175217792 14.727685117723935 14.67883988578216 -1 0 0
796 45 4 -0.12 10.131205829574615 11.141350965915018 19.386717089656795 0 0 -1
159 9 15 0.06 8.055367891443627 4.183346051384034 12.535224010247243 0 0 0
2619 146 9 0.06 1.6923134532644295 10.82986815712643 14.35651898086841 0 0 1
1178 66 8 0.06 5.71630720592322 15.361636209035824 15.304153233278184 -1 0 0
2650 148 4 -0.12 5.9943285011765495 9.835536388546979 16.16633260602797 0 0 0
3092 172 14 0.06 4.659479460512901 11.599169042358264 19.141229363489707 1 0 0
2661 148 15 0.06 4.999817381289072 10.084320221289799 16.457542228929206 0 0 0
3082 172 4 -0.12 4.2377842193420925 12.538861881268225 18.750757609973828 1 0 0
3095 172 17 0.06 3.658904528698482 12.138357083284683 16.65468483916012 1 0 0
3091 172 13 0.06 5.818588242097934 12.874477001195364 17.386755467826795 1 0 0
2656 148 10 0.06 5.349320358480606 12.446981522830258 15.124003372397464 0 0 0
3084 172 6 -0.6830000000000001 2.4020702049294065 11.245579588133403 17.95947261473483 1 0 0
3083 172 5 0.145 3.14118523521584 12.353095580064888 17.640129009058263 1 0 0
2647 148 1 -0.18 7.268072605387248 13.084631167143336 14.439996456554088 0 0 0
3089 172 11 0.06 6.2113295951812635 13.856612289275612 20.270988757467613 1 0 0
3093 172 15 0.06 3.8160331412996453 13.01640053168906 19.678747887082714 1 0 0
2657 148 11 0.06 6.068597908415458 11.509471930835334 13.884161703923228 0 0 0
1635 91 15 0.06 4.375328806808938 7.130883353051756 12.65067856382329 0 1 1
2659 148 13 0.06 7.204626271979914 11.599880683059498 16.716839503095457 0 0 0
2621 146 11 0.06 1.2129657621938263 12.095927619438312 12.242393101590487 0 0 1
1623 91 3 -0.12 2.4651770786275904 7.853735042923232 12.137644447630555 0 1 1
3081 172 3 -0.12 5.371051941690347 13.391806318025283 18.206744802605616 1 0 0
3085 172 7 0.06 7.463863657243373 15.516985719704369 18.565012977515938 1 0 0
2653 148 7 0.06 6.883837182798535 13.893877622457623 13.820329546535657 0 0 0
887 50 5 0.145 0.9488498939667027 12.469710053290523 21.366419468384535 0 0 -1
2658 148 12 0.06 7.678271017810707 10.638610462902015 15.346809070709753 0 0 0
3213 179 9 0.06 2.056727579664957 9.51631498369887 21.66284300828031 1 0 1
2649 148 3 -0.12 6.888172543990604 11.03664204571944 15.838720726634303 0 0 0
2617 146 7 0.06 3.199289394111898 10.710952857113984 13.462954861553472 0 0 1
147 9 3 -0.12 6.174318201816582 3.84896934682468 13.521112613419865 0 0 0
3450 192 12 0.06 10.112409218779401 15.148252062170661 15.792147815756255 0 1 1
3087 172 9 0.06 8.264061774096147 14.498189686611717 19.662393689348818 1 0 0
968 54 14 0.06 7.664403528983635 12.115998503196762 11.885885582035144 0 0 1
3830 213 14 0.06 8.431170769677475 3.5036025343633495 19.892406994011704 0 1 1
899 50 17 0.06 1.9339615685019278 12.218992907291096 21.68625462784697 0 0 -1
961 54 7 0.06 7.549433252179814 8.707077907022708 11.814763221041527 0 0 1
993 56 3 -0.12 3.767982634090642 6.1030231006438385 28.26712069005893 0 0 0
1003 56 13 0.06 3.618505333399902 5.498449545024315 29.228452840145987 0 0 0
994 56 4 -0.12 3.288742452814818 5.092712024263703 27.126564725847924 0 0 0
1005 56 15 0.06 2.2198166261023338 4.936344247779283 27.123624735374182 0 0 0
1002 56 12 0.06 4.811345802873791 6.4116977104745025 28.2262454747683 0 0 0
1004 56 14 0.06 3.481054782257969 5.579175278007353 26.168171553834053 0 0 0
506 29 2 -0.12 7.198457312582369 7.952298559690914 24.218071007365836 0 0 -1
514 29 10 0.06 6.9902830651233065 8.041925504674568 25.279039002556527 0 0 -1
992 56 2 -0.12 2.8967036398318773 7.376154951459477 28.24273637833808 0 0 0
3915 218 9 0.06 7.015803173008338 8.960261737084023 29.340603061708574 0 0 0
3215 179 11 0.06 2.807737700799593 6.683415743234669 22.729182152386578 1 0 1
505 29 1 -0.18 8.541487827902456 8.710208131841693 24.071023651451437 0 0 -1
991 56 1 -0.18 3.2436681265713108 8.53118576703859 29.233629349339026 0 0 0
511 29 7 0.06 9.27191579227801 8.082478956765648 24.4295986890867 0 0 -1
1001 56 11 0.06 2.9312042223756003 7.734964866891494 27.23848932655078 0 0 0
1000 56 10 0.06 1.8976953837795905 7.045172422561108 28.4240736166016 0 0 0
4634 258 8 0.06 7.888298428093445 6.795205724478987 27.814858416841016 0 0 0
3822 213 6 -0.6830000000000001 9.081074311911998 4.730409134998152 21.829182614134854 0 1 1
516 29 12 0.06 7.4413298720162 6.3568597973211345 22.591923723851767 0 0 -1
507 29 3 -0.12 7.265240935824591 6.4981266425457616 23.648532686047776 0 0 -1
515 29 11 0.06 6.34443531331147 8.459634559184623 23.793804385263805 0 0 -1
517 29 13 0.06 8.127159534122082 5.984483621230481 24.141433140201023 0 0 -1
4638 258 12 0.06 10.072026516208894 7.578705544665003 28.58454990260689 0 0 0
508 29 4 -0.12 6.013337039548169 5.667786323961477 24.028498718311784 0 0 -1
519 29 15 0.06 5.132122012566481 6.107082070607747 23.459885703341794 0 0 -1
518 29 14 0.06 5.881487157943381 5.852314474560496 25.10158933529674 0 0 -1
4578 255 6 -0.6830000000000001 1.059611435473189 14.80045506086352 31.745951177753337 1 -1 -1
997 56 7 0.06 3.882091015100405 9.321491497993136 28.731487712160078 0 0 0
1925 107 17 0.06 3.4986128151438405 15.423999410607731 30.197473833717794 0 0 0
3907 218 1 -0.18 6.7190116296589935 8.7316969916475 30.406179708349878 0 0 0
894 50 12 0.06 0.4452644880469997 12.42611111102425 24.09954574124965 0 0 -1
4423 246 13 0.06 0.5446336200040521 11.519139505050356 31.48468858031987 2 0 -1
4635 258 9 0.06 8.284926562608698 5.072071935572577 28.137747459884487 0 0 0
5098 284 4 -0.12 1.1502654195884363 3.448413527281495 24.42722704288136 1 -1 -1
510 29 6 -0.6830000000000001 6.675060681823816 3.89197679566941 22.45678786687719 0 0 -1
3914 218 8 0.06 6.064915673556209 7.830175330962437 30.511117291881202 0 0 0
5928 330 6 -0.6830000000000001 0.8981191759464219 3.9320901851741024 31.750306965241318 1 0 -2
1091 61 11 0.06 10.147787719176897 12.287828730659186 28.54224221637943 -1 0 0
4627 258 1 -0.18 8.395011068489113 5.910953394910983 27.408323225633946 0 0 0
520 29 16 0.06 7.090671234015447 3.8498107283452567 24.363827928293933 0 0 -1
3212 179 8 0.06 0.9452044693647844 8.101462547141063 22.014515305207098 1 0 1
509 29 5 0.145 6.288704384622622 4.149729361743138 23.80992141041248 0 0 -1
886 50 4 -0.12 0.1872586419821647 13.453261789421896 22.225159854334578 0 0 -1
3205 179 1 -0.18 1.9291750667493979 8.594517412976389 22.288158299528998 1 0 1
3918 218 12 0.06 8.672388293468115 10.119836998255641 30.52253705516281 0 0 0
5109 284 15 0.06 1.654101820213286 4.434804923002755 24.514469888440342 1 -1 -1
896 50 14 0.06 0.8564033831450836 14.257672140599906 22.538117907003056 0 0 -1
144 8 18 0.418 1.1056993395333 3.93329998569413 28.158388150020386 -1 0 0
1006 56 16 0.06 5.134905104010028 3.9035288007168196 26.938235142352074 0 0 0
132 8 6 -0.6830000000000001 0.8050115641721436 3.6245347224314277 29.035002061992238 -1 0 0
4633 258 7 0.06 7.65398661078148 5.673884534411368 26.636748074427317 0 0 0
521 29 17 0.06 5.440572357413866 3.584354312957281 24.140743430796295 0 0 -1
5706 317 18 0.418 6.610205630175207 15.17394849786292 23.29523485972815 1 -1 0
3834 213 18 0.418 9.831240388189732 4.959317078716645 22.378169484842008 0 1 1
3908 218 2 -0.12 7.876618407815015 8.242433767473276 31.31416387251224 0 0 0
2267 126 17 0.06 1.3175993054482449 15.575908900489383 26.7841317206815 1 0 0
998 56 8 0.06 3.7510508818105706 8.198503409790352 30.201352524766133 0 0 0
1087 61 7 0.06 9.640914996327286 14.026141148091634 30.392548255187933 -1 0 0
5262 293 6 -0.6830000000000001 5.427996849039824 15.287852726178137 24.805130353788236 1 1 0
513 29 9 0.06 8.823408413374247 8.989610115075248 23.09329735472634 0 0 -1
5546 309 2 -0.12 4.724531519074829 11.098453383633364 24.015689074078885 1 0 -1
3211 179 7 0.06 1.8539506895510054 9.018618902568653 23.30083571109892 1 0 1
1926 107 18 0.418 2.1082109458439504 13.958758331089925 30.442622432740986 0 0 0
1089 61 9 0.06 8.789811461108123 12.614765503054945 30.536430263879147 -1 0 0
1913 107 5 0.145 3.9169451356772274 14.433191750891757 30.12955009453913 0 0 0
5274 293 18 0.418 4.487787338574496 15.097736707719756 25.199741774307856 1 1 0
3917 218 11 0.06 8.517946431036098 7.598529630908031 30.825222089119396 0 0 0
4418 246 8 0.06 3.2363199076337716 10.91793309247955 30.79357958595729 2 0 -1
522 29 18 0.418 7.512767815704599 4.358401592727837 22.3270025987465 0 0 -1
2256 126 6 -0.6830000000000001 2.993196933627794 15.213052603820316 25.813646270418957 1 0 0
1920 107 12 0.06 4.87944659315226 12.446509752951213 28.64561504209509 0 0 0
2268 126 18 0.418 2.8748347365144693 14.352312665043597 26.245247767173076 1 0 0
5691 317 3 -0.12 9.45915447748106 12.401560481963516 24.412312695463093 1 -1 0
5561 309 17 0.06 1.6988663133133708 11.10974834580152 27.696141820780397 1 0 -1
5555 309 11 0.06 5.595599931157314 11.248847705338823 24.668198709564706 1 0 -1
999 56 9 0.06 2.2944766486520187 9.09098696186675 29.417141715529937 0 0 0
512 29 8 0.06 8.531087412116726 9.614790433733344 24.652543402421955 0 0 -1
1917 107 9 0.06 7.659243207866862 11.315476522651597 26.63936522671539 0 0 0
5552 309 8 0.06 5.05100686077161 12.715927326108854 22.472641183432415 1 0 -1
1914 107 6 -0.6830000000000001 2.732962691669699 13.709653958934036 29.79677660827687 0 0 0
5562 309 18 0.418 2.3779221134371626 13.060032089616296 27.83436883303998 1 0 -1
5692 317 4 -0.12 8.869634829124637 13.76000300297535 23.945155460763345 1 -1 0
3913 218 7 0.06 6.285721153024821 9.608039564361743 30.91928241259282 0 0 0
5560 309 16 0.06 1.1330336375323982 11.472782603700661 26.010868473001803 1 0 -1
4533 252 15 0.06 9.834676669907134 3.6075714327411967 30.547143838921492 0 1 0
5549 309 5 0.145 1.9151792136277301 11.62287479308978 26.704463946761972 1 0 -1
5551 309 7 0.06 5.7418126655850985 11.00866475905326 22.092103667173955 1 0 -1
5545 309 1 -0.18 4.889204692876063 11.589326011348888 22.57252371479033 1 0 -1
5557 309 13 0.06 2.6384320839167175 11.514346759479569 24.062150789432376 1 0 -1
1922 107 14 0.06 5.7553576667432065 15.219811813051246 29.123860163832532 0 0 0
5556 309 12 0.06 3.6319443495729016 12.731265990372737 24.797884951203393 1 0 -1
1919 107 11 0.06 6.086890824095567 13.334810363948687 26.568394615067827 0 0 0
5554 309 10 0.06 4.54567306537136 10.03675830524272 23.952172868474435 1 0 -1
5550 309 6 -0.6830000000000001 2.2346678128307866 12.96591295790517 26.887878074069846 1 0 -1
5703 317 15 0.06 9.537967099926703 14.412840745927848 23.39801874128301 1 -1 0
5559 309 15 0.06 3.943972691725943 10.924629859004057 26.7375206526357 1 0 -1
1911 107 3 -0.12 5.653184780648719 13.196321504407639 28.806972414564356 0 0 0
1918 107 10 0.06 7.349457648785715 13.803842900365595 27.590009277919872 0 0 0
5548 309 4 -0.12 3.1375783033494025 10.984707687694808 26.03642638156506 1 0 -1
5705 317 17 0.06 6.796140256288932 13.121041670818366 23.481293935776392 1 -1 0