LAMMPS data file via write_data, version 29 Aug 2024, timestep = 1000000, units = real

6174 atoms
18 atom types
5831 bonds
17 bond types
10633 angles
31 angle types
11319 dihedrals
33 dihedral types

1.1097975486801204 41.98020245132893 xlo xhi
1.1097975486801204 41.98020245132893 ylo yhi
1.1097975486801204 41.98020245132893 zlo zhi

Masses

1 12.011
2 12.011
3 12.011
4 15.999
5 12.011
6 12.011
7 1.008
8 1.008
9 1.008
10 1.008
11 1.008
12 1.008
13 1.008
14 1.008
15 1.008
16 1.008
17 1.008
18 1.008

Pair Coeffs # lj/cut/coul/long

1 0.066 3.5
2 0.066 3.5
3 0.066 3.5
4 0.14 2.9
5 0.066 3.5
6 0.066 3.5
7 0.03 2.5
8 0.03 2.5
9 0.03 2.5
10 0.03 2.5
11 0.03 2.5
12 0.03 2.5
13 0.03 2.5
14 0.03 2.5
15 0.03 2.5
16 0.03 2.5
17 0.03 2.5
18 0.03 2.5

Bond Coeffs # harmonic

1 268 1.529
2 268 1.529
3 320 1.41
4 320 1.41
5 268 1.529
6 340 1.09
7 340 1.09
8 340 1.09
9 340 1.09
10 340 1.09
11 340 1.09
12 340 1.09
13 340 1.09
14 340 1.09
15 340 1.09
16 340 1.09
17 340 1.09

Angle Coeffs # harmonic

1 58.35 112.7
2 50 109.5
3 60 109.5
4 50 109.5
5 37.5 110.7
6 37.5 110.7
7 37.5 110.7
8 37.5 110.7
9 37.5 110.7
10 37.5 110.7
11 37.5 110.7
12 35 109.5
13 35 109.5
14 37.5 110.7
15 37.5 110.7
16 37.5 110.7
17 33 107.8
18 37.5 110.7
19 33 107.8
20 33 107.8
21 33 107.8
22 37.5 110.7
23 37.5 110.7
24 33 107.8
25 33 107.8
26 33 107.8
27 35 109.5
28 33 107.8
29 33 107.8
30 35 109.5
31 37.5 110.7

Dihedral Coeffs # opls

1 1.711 -0.5 0.663 0
2 0.65 -0.25 0.67 0
3 0.65 -0.25 0.67 0
4 0 0 0.3 0
5 0 0 0.468 0
6 0 0 0.3 0
7 0 0 0.3 0
8 0 0 0.468 0
9 0 0 0.3 0
10 0 0 0.3 0
11 0 0 0.3 0
12 0 0 0.3 0
13 0 0 0.3 0
14 0 0 0.3 0
15 0 0 0.3 0
16 0 0 0.468 0
17 0 0 0.76 0
18 0 0 0.76 0
19 0 0 0.3 0
20 0 0 0.3 0
21 0 0 0.76 0
22 0 0 0.3 0
23 0 0 0.3 0
24 0 0 0.3 0
25 0 0 0.3 0
26 0 0 0.3 0
27 0 0 0.3 0
28 0 0 0.3 0
29 0 0 0.468 0
30 0 0 0.3 0
31 0 0 0.468 0
32 0 0 0.3 0
33 0 0 0.76 0

Atoms # full

4656 259 12 0.03 9.0346153599853 5.760801735819625 7.989346348584148 -2 -1 -2
4652 259 8 0.06 6.562817389655189 5.011562306241688 6.385790836236283 -2 -1 -2
4647 259 3 0.14 8.704840896056796 4.659773110586588 7.884482854601903 -2 -1 -2
4648 259 4 -0.4 7.474525610195835 4.444484075756041 8.562066021834573 -2 -1 -2
4657 259 13 0.03 9.45567524678126 3.9423721183050047 8.268562970345242 -2 -1 -2
2600 145 8 0.06 10.277002452869452 1.5876011931107894 3.3389002770841554 -1 1 1
1534 86 4 -0.4 9.099723586741934 5.591222124171589 2.6792390497746528 1 1 1
4646 259 2 -0.12 8.51210998652877 4.313400030532787 6.417008692627261 -2 -1 -2
4655 259 11 0.06 8.191319297829299 3.2405720035305143 6.281742888195045 -2 -1 -2
4645 259 1 -0.18 7.447102863528965 5.195492967476279 5.791628338919109 -2 -1 -2
4654 259 10 0.06 9.530608104308397 4.36019467823796 6.04242167609221 -2 -1 -2
4653 259 9 0.06 7.129285867460961 4.90452048795172 4.783169405136929 -2 -1 -2
4651 259 7 0.06 7.591758436507923 6.279253238586968 5.871030981848058 -2 -1 -2
4662 259 18 0.06 5.532050989747758 5.164381290322218 10.281555719035296 -2 -1 -2
2762 154 8 0.06 4.177218210574097 3.491306508205326 5.894059798087253 -2 1 0
2755 154 1 -0.18 4.441330747242869 2.487600136296366 6.279084643083923 -2 1 0
1224 68 18 0.06 6.387329917890003 3.4564786759019572 2.4571127610505954 -2 1 4
1222 68 16 0.06 5.688686988336667 5.041283836424439 2.8344280428790514 -2 1 4
1212 68 6 -0.18 6.008609703258395 4.35159133550129 2.0112970565245916 -2 1 4
322 18 16 0.06 1.6130020075681788 6.7501912935785064 6.095302614133638 -2 1 2
5328 296 18 0.06 11.114915000780575 6.328602099755387 9.46814538377426 -1 0 -1
2765 154 11 0.06 5.927918492344628 2.3313589001961073 4.856020192842612 -2 1 0
1072 60 10 0.06 2.3382733870974053 2.74946378940953 2.6185203788744937 2 0 -5
1535 86 5 0.14 8.734394605011758 6.959028932226812 2.9172028531819443 1 1 1
1544 86 14 0.03 7.675736898356595 7.014165482104333 2.938931729077953 1 1 1
1546 86 16 0.06 10.434243124765862 7.195893227809008 4.163651724997256 1 1 1
4661 259 17 0.06 5.632641499026544 3.491695488460383 10.08086528515377 -2 -1 -2
1536 86 6 -0.18 9.52243193280763 7.558560304302764 4.116453021662585 1 1 1
1547 86 17 0.06 9.047461788157717 7.374467510630742 5.080613028871458 1 1 1
1075 60 13 0.03 1.4445171202426386 2.3705980575583068 4.779310501151037 2 0 -5
1543 86 13 0.03 10.702488245919326 6.23345963733511 1.5590188343161302 1 1 1
3499 195 7 0.06 4.531698825200758 6.424790741719842 4.735501872277363 3 1 2
5291 294 17 0.06 2.577069796179469 6.718553900391658 9.27014141787388 1 2 0
3500 195 8 0.06 6.121701486458488 7.187258787006203 4.4171797157861254 3 1 2
1545 86 15 0.03 9.03857850338086 7.594714215286088 2.030281197176055 1 1 1
3493 195 1 -0.18 5.031993063380817 7.418390253371122 4.732479230887076 3 1 2
1070 60 8 0.06 1.3233928277565052 4.9707744457356196 1.851337544236011 2 0 -5
2763 154 9 0.06 5.039222299590426 2.6514524843762928 7.201696584454462 -2 1 0
4658 259 14 0.03 7.973129441193044 5.605951695933374 10.028673253544861 -2 -1 -2
4650 259 6 -0.18 6.195873227108503 4.357066291219634 10.45558347641507 -2 -1 -2
608 34 14 0.03 5.216066933032501 1.5110117411204418 10.154739756883115 0 0 -2
4402 245 10 0.06 1.4049807450582288 2.813846961995046 9.279224009892896 4 0 0
5342 297 14 0.03 9.763505402014097 6.350206542457216 11.096531537457096 1 1 0
5321 296 11 0.06 11.083887583258118 2.6518392738815297 6.056833567990391 -1 0 -1
3697 206 7 0.06 6.275484716982718 7.842593696288064 9.811447910050628 1 -2 0
3698 206 8 0.06 7.010155663367617 7.38149501717309 11.30324109038187 1 -2 0
1064 60 2 -0.12 1.274603928028038 2.934637834090914 2.77619859269309 2 0 -5
1541 86 11 0.06 10.073797393881236 3.215852833686903 1.6607718907200324 1 1 1
1533 86 3 0.14 9.956275092357663 5.45404477031041 1.5553433287275151 1 1 1
4649 259 5 0.14 7.570130046507787 4.604261165346035 10.001987744499184 -2 -1 -2
2767 154 13 0.03 4.651484249446241 1.6439409798033484 3.2721298629101083 -2 1 0
2761 154 7 0.06 3.500946850176574 1.9520386700789594 6.583330948005908 -2 1 0
4659 259 15 0.03 8.20488677632284 3.7954093688317836 10.295112288150237 -2 -1 -2
5280 294 6 -0.18 2.425093674476206 7.743685250842274 9.525581189683457 1 2 0
1223 68 17 0.06 6.80207609815779 4.924115290895969 1.5290300043945249 -2 1 4
3494 195 2 -0.12 4.860904172321132 7.888347334559472 6.209957204295372 3 1 2
3502 195 10 0.06 5.021324366341428 7.059181400331214 6.842280217438249 3 1 2
881 49 17 0.06 9.45057283616259 1.9765642787400872 10.814499385469908 1 1 3
1532 86 2 -0.12 10.755636050073337 4.0968504900481015 1.5931402624905964 1 1 1
1221 68 15 0.03 4.0113838538654605 3.8701056233422073 1.5700257102210173 -2 1 4
2756 154 2 -0.12 5.2790301734386595 1.6300923256856197 5.3501484925086755 -2 1 0
4396 245 4 -0.4 1.779076208507354 4.2226693038659615 11.309297372572257 4 0 0
1074 60 12 0.03 1.3269460806675837 4.201712351201227 4.661784396162919 2 0 -5
3977 221 17 0.06 9.208819180740633 12.756297502026117 7.363336135862015 2 2 4
5610 312 12 0.03 2.1059712925815566 13.370217936483625 8.667106925599974 0 3 -2
2465 137 17 0.06 3.674473532560627 14.114760089742393 6.671088069570618 0 2 -1
1839 103 3 0.14 3.5703758172784408 9.54833720224798 1.4079549023751043 4 -1 0
2463 137 15 0.03 1.7972826272146802 13.648895554981836 4.321136869266211 0 2 -1
2454 137 6 -0.18 3.23234197149723 13.625127152377296 5.83143842544907 0 2 -1
1838 103 2 -0.12 4.486246677850156 10.717650631730525 1.848214646128574 4 -1 0
4031 224 17 0.06 11.3209102202792 14.338770585232773 2.301597744634569 -1 2 -1
3496 195 4 -0.4 7.152069483047794 8.77155780571098 6.561695203897289 3 1 2
3501 195 9 0.06 4.527660534213993 8.09333904297888 4.156761998873964 3 1 2
5298 295 6 -0.18 10.612417965805799 10.4903324874059 1.267652968546369 -1 1 1
1844 103 8 0.06 3.741541989775092 10.529385698863623 3.929796097183779 4 -1 0
3510 195 18 0.06 7.7681462076676295 11.501941925651245 5.3869895378672705 3 1 2
1848 103 12 0.03 3.572233369810276 8.781293551430466 2.259389674865202 4 -1 0
1843 103 7 0.06 4.883414611299603 11.954097007060598 3.6697792831957057 4 -1 0
5340 297 12 0.03 10.28130513931839 8.734867202796952 10.709756273193044 1 1 0
1845 103 9 0.06 3.232357147157367 11.935921844857447 3.1517784589958766 4 -1 0
321 18 15 0.03 1.7264875746052786 9.061277553694367 5.03521340432332 -2 1 2
3966 221 6 -0.18 8.970624127195956 13.296762170758962 8.330800319568453 2 2 4
3964 221 4 -0.4 11.044639138545566 14.589375100371642 8.709325643279817 2 2 4
2466 137 18 0.06 4.050332249936328 13.505144700310591 5.123843556470718 0 2 -1
3691 206 1 -0.18 7.074054696007449 8.062561165417186 10.50653776802365 1 -2 0
1846 103 10 0.06 5.558488847797622 10.397214568265705 1.8950984113916727 4 -1 0
3504 195 12 0.03 5.562834065088712 9.23802356903693 7.733504532808017 3 1 2
4027 224 13 0.03 6.983839656632102 13.91902766411506 4.503603409525267 -1 2 -1
1837 103 1 -0.18 4.121754426608908 11.303550019613388 3.222474781680537 4 -1 0
3498 195 6 -0.18 8.337546312175604 10.584569387587043 5.536581034381452 3 1 2
5607 312 9 0.06 3.6185874195615346 10.597414481583023 9.902900862477347 0 3 -2
3978 221 18 0.06 7.8526160317886005 13.534623599124238 8.382807264915794 2 2 4
3699 206 9 0.06 7.931275597666144 7.931701113857212 9.811872303234042 1 -2 0
3497 195 5 0.14 8.003455680984546 9.846508575148215 6.810985008028176 3 1 2
3506 195 14 0.03 8.937425340491675 9.299420245329273 7.085137547011858 3 1 2
5329 297 1 -0.18 11.213592592815822 11.145243117489704 11.237330440036137 1 1 0
5290 294 16 0.06 2.633553268771658 8.29218501413489 8.576739638732661 1 2 0
4019 224 5 0.14 9.22160823331699 14.502748797978672 3.2528507650174765 -1 2 -1
5600 312 2 -0.12 2.996060190188673 12.669310927063595 10.426060535326602 0 3 -2
5292 294 18 0.06 3.2380326670748203 8.089565025319548 10.108793597493289 1 2 0
5606 312 8 0.06 3.9877286081773664 11.84872043728955 8.746615294037854 0 3 -2
2453 137 5 0.14 2.2444928739441563 14.363419603028236 5.028430666662866 0 2 -1
1548 86 18 0.06 9.636706202344431 8.654514247676136 4.015909450748747 1 1 1
3495 195 3 0.14 5.725724040529857 9.007397195248586 6.7201974632124895 3 1 2
5599 312 1 -0.18 3.9227748238348386 11.639046038781794 9.780032387333792 0 3 -2
3973 221 13 0.03 11.128936697302548 13.767017035297208 6.7583938105556385 2 2 4
5605 312 7 0.06 4.879997344485987 11.69665489924689 10.123142865832689 0 3 -2
4028 224 14 0.03 8.76456372975652 14.451305562651754 2.211494747692187 -1 2 -1
3976 221 16 0.06 9.228169041094402 12.668626355344072 9.14097984177085 2 2 4
3508 195 16 0.06 8.147552535899244 9.911348753425445 4.714319039322011 3 1 2
5309 295 17 0.06 10.277281385781498 10.586456446980929 2.350660305240103 -1 1 1
1725 96 15 0.03 1.5216889796053756 13.285986637586726 1.6997900510941917 -3 -1 0
3700 206 10 0.06 6.845712596066374 10.279314193587691 10.337664793660869 1 -2 0
2464 137 16 0.06 2.709836394465635 12.72734146297224 6.227744123140644 0 2 -1
3503 195 11 0.06 3.8164049510126934 7.9627532240722525 6.53360199689694 3 1 2
5601 312 3 0.14 1.7348124013191364 12.91014633291385 9.638986369795818 0 3 -2
3692 206 2 -0.12 6.887036094961689 9.522774052629206 11.151194512605244 1 -2 0
4029 224 15 0.03 9.22748172796259 13.524280453154528 3.779908951176838 -1 2 -1
3965 221 5 0.14 9.629852508727277 14.686850222699245 8.42750558896866 2 2 4
3507 195 15 0.03 7.631917311980675 10.519871392112341 7.565754474867057 3 1 2
3505 195 13 0.03 5.442465500498054 9.857401791041504 6.197984060024966 3 1 2
3509 195 17 0.06 9.337859960995429 10.88490206893731 5.3719043951056795 3 1 2
5306 295 14 0.03 10.822878526388092 8.442186197476087 1.1747079762225965 -1 1 1
1726 96 16 0.06 3.7957270168987 14.494106601838425 2.463659307953062 -3 -1 0
5608 312 10 0.06 3.501031878509769 13.625466020385572 10.43352070953317 0 3 -2
5336 297 8 0.06 11.118778037645983 11.01399803576977 10.185938150746805 1 1 0
3254 181 14 0.03 6.666251151081035 14.098084208974846 11.191306117241671 2 1 1
5611 312 13 0.03 1.172528919864232 13.677993062569497 10.103814033512938 0 3 -2
1850 103 14 0.03 1.212569394364846 8.263355216225104 1.1951662971959678 4 -1 0
1432 80 10 0.06 4.509267106371036 6.2789045678620585 18.05564576410585 -1 0 0
1435 80 13 0.03 3.6773884920570823 4.751456822745931 19.638486422934648 -1 0 0
1425 80 3 0.14 4.516870041087252 4.425254697098902 19.02827287941991 -1 0 0
918 51 18 0.06 8.676243197955136 3.0556197042143394 16.77843984947718 2 -2 1
1427 80 5 0.14 5.888565733105928 3.8817635167537423 20.837414918669815 -1 0 0
1436 80 14 0.03 6.10039235835177 2.795180705609254 20.724661238531134 -1 0 0
1426 80 4 -0.4 5.6835814392218404 4.672519537191089 19.725251662513216 -1 0 0
1424 80 2 -0.12 4.476955851460703 5.219067039128401 17.785127256510215 -1 0 0
1434 80 12 0.03 4.404219397140686 3.3921242122179547 18.81364806903992 -1 0 0
1429 80 7 0.06 2.280335431942917 5.120937485763823 17.653408380725804 -1 0 0
604 34 10 0.06 3.3783163209062983 2.1951113665329105 14.62544307773211 0 0 -2
1433 80 11 0.06 5.372434878018766 5.100870109628918 17.20576026004609 -1 0 0
1423 80 1 -0.18 3.109805046189117 5.039296108021738 16.957816017890593 -1 0 0
1430 80 8 0.06 3.137203648428257 4.115480321165878 16.463061132466564 -1 0 0
962 54 8 0.06 1.3631067700203718 3.0803412239613186 17.897968064523045 0 2 0
1431 80 9 0.06 3.0825386531249315 5.886507800748364 16.300034204073125 -1 0 0
906 51 6 -0.18 8.744410381634232 2.0541399775682936 16.418255790452374 2 -2 1
1428 80 6 -0.18 7.189367440844254 4.4175926465083375 21.49645631570963 -1 0 0
1439 80 17 0.06 7.9024509944354016 4.706346382316923 20.782382517838265 -1 0 0
4241 236 11 0.06 10.638203835260395 5.355031931787877 17.181432692714143 1 0 2
603 34 9 0.06 6.2568823331950325 1.5329365838054307 14.145776214377161 0 0 -2
602 34 8 0.06 5.6231782968467545 3.111376670822618 14.189538172228566 0 0 -2
3707 206 17 0.06 4.722621586137519 7.699608138677798 15.938756441207365 1 -2 0
904 51 4 -0.4 10.971305769351071 2.2828987344495895 15.579170854163028 2 -2 1
917 51 17 0.06 8.314410184244172 2.071962437784875 15.383210648963674 2 -2 1
595 34 1 -0.18 5.383155383873911 2.1003795625508443 14.531260732454678 0 0 -2
4232 236 2 -0.12 9.860195231085747 5.866083464548479 16.743841692349548 1 0 2
4238 236 8 0.06 9.120634298179406 6.668043763123501 18.463297652508082 1 0 2
4237 236 7 0.06 8.022162747452345 6.841259073976547 17.283231613103464 1 0 2
4239 236 9 0.06 8.096486699563464 5.298218481913954 18.00838230889157 1 0 2
3696 206 6 -0.18 5.531230724054582 7.800506282041315 15.210509194164757 1 -2 0
4397 245 5 0.14 1.7558383716282566 5.215909648715264 12.375739006834493 4 0 0
4231 236 1 -0.18 8.678415668828702 6.076598461333084 17.57309417505816 1 0 2
2185 122 7 0.06 1.4181555211716734 7.804275202385015 16.767143418134374 -2 -2 1
4409 245 17 0.06 3.267560708839869 6.672553823707869 13.181499167336733 4 0 0
5334 297 6 -0.18 10.604966100359489 5.2267456327958355 12.632077232993295 1 1 0
4406 245 14 0.03 1.2725507002287917 4.737334151842714 13.282308319374671 4 0 0
5333 297 5 0.14 10.075305871561271 6.53013595932825 12.154011963690335 1 1 0
5343 297 15 0.03 9.231056505118808 6.86335928006676 12.749088184894243 1 1 0
5332 297 4 -0.4 11.12885009300143 7.486943194500377 12.193746187092168 1 1 0
4833 269 9 0.06 3.9741644582586018 1.6009725142761142 20.858554105464332 -3 2 0
4240 236 10 0.06 9.526501510348055 5.2922697722397265 15.841509774310325 1 0 2
596 34 2 -0.12 4.016999482855849 1.531678034745814 14.11414383781833 0 0 -2
5345 297 17 0.06 9.806680930552492 4.462807192937284 12.74335951017503 1 1 0
601 34 7 0.06 5.561910412627464 2.1534857568807824 15.61427533638535 0 0 -2
4831 269 7 0.06 2.50932013894693 1.98159438459209 19.992365485130463 -3 2 0
2188 122 10 0.06 1.1732269367715107 6.313156899512314 14.992160023274337 -2 -2 1
4410 245 18 0.06 3.7650431558363624 5.846887497892177 11.72110823310646 4 0 0
4660 259 16 0.06 6.270877581806194 4.20913671639344 11.49537589997942 -2 -1 -2
4233 236 3 0.14 10.60380459558148 7.090180579300369 16.208279592008363 1 0 2
3706 206 16 0.06 5.659915188873691 6.783591301229738 14.82179783947131 1 -2 0
4242 236 12 0.03 9.9935865066634 7.797329662850163 15.628685584233793 1 0 2
4398 245 6 -0.18 3.2327654552781135 5.727745604528686 12.654369637626283 4 0 0
916 51 16 0.06 8.009792409058594 1.5529035860681248 16.994859831711487 2 -2 1
905 51 5 0.14 10.18276507486643 1.4697669662088013 16.524984870001703 2 -2 1
597 34 3 0.14 3.777780067055217 1.5651063379561083 12.564984544953333 0 0 -2
964 54 10 0.06 1.1438314558138916 2.7334510370659144 15.334528354038763 0 2 0
606 34 12 0.03 4.054684352717141 2.5093123809155347 12.142288722196092 0 0 -2
4825 269 1 -0.18 2.8848010911776782 1.648269824503228 20.896844269095055 -3 2 0
4408 245 16 0.06 3.671307085921569 4.89449499816244 13.332739860248708 4 0 0
4407 245 15 0.03 1.140122173932456 6.025142574547227 12.074014826626861 4 0 0
5346 297 18 0.06 11.119896184807033 5.269087894381381 13.602333742033949 1 1 0
914 51 14 0.03 10.564459858507833 1.527625783978743 17.560937054191452 2 -2 1
880 49 16 0.06 10.497354710921819 1.2404591788613288 12.024322616040653 1 1 3
878 49 14 0.03 8.17064408108233 1.2281980312667868 13.045801247081771 1 1 3
963 54 9 0.06 1.637909814401152 1.392951956298881 17.141614673116493 0 2 0
607 34 13 0.03 2.7326499391976764 1.316180006918193 12.157436091634288 0 0 -2
1437 80 15 0.03 5.026906822158291 3.8418448737230655 21.4662359037794 -1 0 0
4234 236 4 -0.4 11.296080532911887 7.826732666464209 17.203337356794993 1 0 2
5344 297 16 0.06 11.230706027498364 4.650930170571551 11.942922753945599 1 1 0
1405 79 1 -0.18 10.374748148075602 12.676666432633562 19.805461638486282 -3 2 -2
3701 206 11 0.06 7.854015465806166 9.661469781132887 11.677633498913353 1 -2 0
2358 131 18 0.06 2.696176822600533 14.359026262130653 21.279985517798252 2 1 -1
2719 152 1 -0.18 2.3653399978821072 14.37994360640367 14.192551854596324 0 -1 -1
2727 152 9 0.06 1.6176936038583984 13.772593346549073 14.766337419266385 0 -1 -1
1272 71 12 0.03 6.167160344684718 10.247513127485108 21.417807499965523 -2 1 -3
3703 206 13 0.03 5.493835388038144 10.659178961846667 12.3949875325173 1 -2 0
2300 128 14 0.03 1.1678811690833755 11.598959855392351 14.180464331050723 -1 -2 0
6017 335 5 0.14 7.695507537429245 13.268460537933617 16.892481861290342 0 2 2
3378 188 12 0.03 10.415296320902645 9.343244383040204 20.834902184783196 3 0 -2
1262 71 2 -0.12 7.2431318528422555 9.178195534407658 19.92760537828224 -2 1 -3
3702 206 12 0.03 4.837178242991415 9.209154947158968 11.683862815978268 1 -2 0
2486 139 2 -0.12 3.0994657198143845 10.455943188481568 20.479664953905605 2 0 1
1412 79 8 0.06 10.000834322838767 12.14226920471402 18.905652645551516 -3 2 -2
6015 335 3 0.14 5.481225644046843 13.323564273301773 15.909594315156506 0 2 2
6026 335 14 0.03 8.091816200957417 12.672323443390718 16.100048266813417 0 2 2
3705 206 15 0.03 5.37091723601483 9.783731221252914 14.66321549540542 1 -2 0
2187 122 9 0.06 2.586551699374657 8.19602785140296 15.39624011376868 -2 -2 1
2179 122 1 -0.18 1.5105145861930696 8.177157971321343 15.72279912495974 -2 -2 1
2726 152 8 0.06 3.153368870486216 13.715965853651044 14.024584573692417 0 -1 -1
1267 71 7 0.06 5.763649477597796 7.998825339750145 18.748137027741716 -2 1 -3
2495 139 11 0.06 3.4934861871103093 9.489751787726233 20.6856888959835 2 0 1
1263 71 3 0.14 6.766122405631064 9.358715129304311 21.371675161157178 -2 1 -3
6016 335 4 -0.4 6.459461925684228 13.913306968403326 16.66927274108788 0 2 2
1411 79 7 0.06 9.917588709589765 12.23129618774187 20.719746904980923 -3 2 -2
6024 335 12 0.03 4.750620468049561 14.141966126030058 15.712696532950629 0 2 2
1271 71 11 0.06 7.963764481092071 8.323015391323048 19.844279737046936 -2 1 -3
3708 206 18 0.06 6.377586436978553 8.059429390652735 15.806563699880002 1 -2 0
5335 297 7 0.06 10.21653193591724 11.399741763631045 11.650584943442984 1 1 0
5341 297 13 0.03 9.816161008789672 8.882931406431439 12.485589360918107 1 1 0
2494 139 10 0.06 3.9188531124333332 11.17356522160608 20.47833362918545 2 0 1
2728 152 10 0.06 1.5193919381869136 14.037109956715067 12.352565500254316 0 -1 -1
4248 236 18 0.06 10.345813004556627 10.900501931385003 16.51348299935887 1 0 2
4246 236 16 0.06 10.116484589318077 10.165384906091516 18.10932906512408 1 0 2
4236 236 6 -0.18 10.210687061402696 9.918417851216427 17.05008923732626 1 0 2
5609 312 11 0.06 2.732534733472897 12.535726420602373 11.492397529995797 0 3 -2
1413 79 9 0.06 9.872657059866064 13.64022003872548 19.700563976702668 -3 2 -2
2485 139 1 -0.18 2.2113041735689203 10.352966242324605 19.243641316973388 2 0 1
5331 297 3 0.14 10.56826233578571 8.687642820600903 11.73479404083229 1 1 0
6027 335 15 0.03 7.5988002511769865 12.638506813461834 17.77224523791254 0 2 2
1268 71 8 0.06 6.772880110829282 9.31649518715745 17.93089879510721 -2 1 -3
6025 335 13 0.03 5.743050827261105 12.914535236548094 14.936209244225068 0 2 2
1270 71 10 0.06 7.858727598137521 9.979258900031516 19.66670790128649 -2 1 -3
6013 335 1 -0.18 3.7129254967471916 11.61964885706103 15.853904468568098 0 2 2
6019 335 7 0.06 3.62891416440566 10.534269102474816 15.998939813496612 0 2 2
3695 206 5 0.14 5.181754121344811 8.84774835482408 14.164942455046132 1 -2 0
6014 335 2 -0.12 4.924068092738462 12.116922297723765 16.562764265585585 0 2 2
1269 71 9 0.06 5.3719323089092 9.704430393533656 18.926480937285547 -2 1 -3
3694 206 4 -0.4 6.111864950726873 8.782932890769624 13.156138334118696 1 -2 0
3704 206 14 0.03 4.197258360799866 8.789886148285547 13.79616264659544 1 -2 0
6022 335 10 0.06 5.62786795936904 11.307569449555126 16.651031342357335 0 2 2
6021 335 9 0.06 2.818587170304765 12.108974631377402 16.16128800221331 0 2 2
6023 335 11 0.06 4.808649788490039 12.351091345219116 17.611870006408438 0 2 2
4247 236 17 0.06 9.19780210986627 9.579515539827929 16.744709482133253 1 0 2
6020 335 8 0.06 3.7543222594350922 11.803194311735838 14.819450421180427 0 2 2
6018 335 6 -0.18 8.66448036870936 14.440830078491125 17.139281773670838 0 2 2
1261 71 1 -0.18 6.229280301933646 9.002312777269719 18.839359584215764 -2 1 -3
2491 139 7 0.06 2.7241568574889223 9.722111761272117 18.545733919823736 2 0 1
6028 335 16 0.06 9.607654889305776 13.98923031990816 17.5545967765581 0 2 2
3693 206 3 0.14 5.706956132873892 9.612077390000387 12.136497638907999 1 -2 0
2493 139 9 0.06 1.326526892819631 9.907953329002744 19.445741375461857 2 0 1
2492 139 8 0.06 2.1271621560923304 11.296262521027685 18.746286847248985 2 0 1
2497 139 13 0.03 1.803928394400097 11.747371091382465 21.341592753317524 2 0 1
2186 122 8 0.06 1.1206592745501496 9.161585412282614 15.444026148044662 -2 -2 1
3839 214 5 0.14 6.398861276614583 4.024379454713208 25.97981012853499 3 4 1
4836 269 12 0.03 2.8487097508425516 2.9847175783742452 24.10820069353638 -3 2 0
6159 343 3 0.14 10.145243240768172 5.9186156109996055 24.452543445437634 0 1 0
420 24 6 -0.18 5.114071196457817 7.904592954353305 27.424352409657875 -2 3 1
3840 214 6 -0.18 5.006603983747366 4.44672785278537 26.358586218163204 3 4 1
4837 269 13 0.03 4.189132593908193 2.192256121559466 23.19489546085364 -3 2 0
3846 214 12 0.03 7.817007986139954 1.7970165547037493 26.012981102133097 3 4 1
6174 343 18 0.06 8.107481146125089 5.393977546853464 27.58446687811763 0 1 0
6161 343 5 0.14 9.291199229070449 6.754997729199647 26.47196459699276 0 1 0
431 24 17 0.06 4.8554149491863745 7.0210620287672905 26.641673204855337 -2 3 1
3851 214 17 0.06 4.6652394099805905 5.056163024145912 25.593156647614894 3 4 1
3849 214 15 0.03 7.1066653640223265 4.836751890820104 25.649915685760384 3 4 1
6171 343 15 0.03 9.848986103011033 7.641559857004188 26.595766352317025 0 1 0
3837 214 3 0.14 8.18150310412192 2.580776585378927 26.68911660483333 3 4 1
6160 343 4 -0.4 10.02289501297728 5.738869615024507 25.88226789355655 0 1 0
4835 269 11 0.06 2.1668212748185773 3.4823840484128694 21.795434789404986 -3 2 0
6170 343 14 0.03 8.461043957768432 7.1689878675955345 25.86216345486011 0 1 0
3838 214 4 -0.4 6.97126527354399 3.2877417944330274 27.088062654665954 3 4 1
3848 214 14 0.03 6.375293460514418 3.3689778333959746 25.15560101894543 3 4 1
6172 343 16 0.06 8.365355002738157 7.015365309757723 28.376741923163596 0 1 0
6162 343 6 -0.18 8.848080680077896 6.194592800510212 27.770121553014935 0 1 0
6158 343 2 -0.12 10.879429480439416 4.64793849349809 23.9918454642728 0 1 0
3852 214 18 0.06 4.861256443901917 4.828002745632736 27.394649400299155 3 4 1
3847 214 13 0.03 8.752741202285987 3.4068754540054513 26.19858664433549 3 4 1
3185 177 17 0.06 9.532184411849121 3.052410966897797 31.27630414828165 -1 3 -4
3634 202 16 0.06 11.255679624396546 5.862729680370709 30.800273011270743 1 0 -1
6167 343 11 0.06 10.42140351222244 3.784750052047397 24.47671098507057 0 1 0
6168 343 12 0.03 9.078869331385544 5.737358493572681 24.075569997487264 0 1 0
4838 269 14 0.03 3.079752168892342 1.4453403860166154 25.94986897349589 -3 2 0
3172 177 4 -0.4 7.802022279654336 1.1160428373562377 31.211288612548824 -1 3 -4
3850 214 16 0.06 4.33791325681527 3.6045226216240605 26.26438944065348 3 4 1
4827 269 3 0.14 3.1374167482017277 2.2290071247229584 23.383988931240506 -3 2 0
1276 71 16 0.06 3.8352066622052097 7.248930407992344 22.38360609850167 -2 1 -3
418 24 4 -0.4 3.330155715676909 7.614480957958096 29.0012535715193 -2 3 1
3844 214 10 0.06 8.896971396649398 2.936321793390392 28.64511654956048 3 4 1
6173 343 17 0.06 9.633050889094461 5.76209721549675 28.38917216862705 0 1 0
3836 214 2 -0.12 8.755700504921894 2.075774133394989 28.01657712791389 3 4 1
1278 71 18 0.06 4.890670701744218 6.525491435576729 23.691987008056273 -2 1 -3
6169 343 13 0.03 10.409012536187577 6.933141916125016 24.103022250476194 0 1 0
6157 343 1 -0.18 11.037937310843517 4.381530911827473 22.444997103225695 0 1 0
416 24 2 -0.12 1.4186156303874582 7.490685670542089 30.18597201419941 -2 3 1
1266 71 6 -0.18 4.382971152910919 7.421259621663416 23.33060966729823 -2 1 -3
1277 71 17 0.06 3.7309344120719685 7.599594459699458 24.243245949356645 -2 1 -3
3186 177 18 0.06 10.560073451178953 1.6791571110636487 31.21568234766119 -1 3 -4
4826 269 2 -0.12 2.3561921244436346 2.4647585655132223 22.11949992673067 -3 2 0
4767 265 15 0.03 2.7343044167323094 2.806860260377891 31.431511587500637 -1 0 0
3835 214 1 -0.18 10.065951149262329 1.2232075437987469 27.93973644548941 3 4 1
432 24 18 0.06 6.209853054290337 7.899857016352046 27.48213333243396 -2 3 1
3842 214 8 0.06 10.863651864457783 1.7442803650248169 27.52582836587794 3 4 1
419 24 5 0.14 4.745357500342524 7.6216909622081985 28.887813631163223 -2 3 1
428 24 14 0.03 5.162857585058076 6.685596335879487 29.26766214691249 -2 3 1
6165 343 9 0.06 10.07611415587369 4.074588163427061 22.13395620114545 0 1 0
417 24 3 0.14 2.9313780821537883 7.413342256279066 30.33192593678676 -2 3 1
1440 80 18 0.06 7.599153471746806 3.640641230062149 22.163278678757532 -1 0 0
426 24 12 0.03 3.231627524879507 6.435769940317711 30.690279718180324 -2 3 1
3178 177 10 0.06 5.777915580509533 1.1112508170826227 29.480334549864796 -1 3 -4
4834 269 10 0.06 1.3722195580889873 2.020962575163343 22.320177110734516 -3 2 0
3845 214 11 0.06 7.940754629615497 1.4580543457804418 28.40808999667441 3 4 1
2411 134 17 0.06 8.245028815783318 1.6939332877481301 23.43056261683411 0 2 -1
2412 134 18 0.06 7.762524225982749 1.2185553547389245 21.76078733401356 0 2 -1
1438 80 16 0.06 7.030612043845592 5.296082712308382 22.157754705962656 -1 0 0
430 24 16 0.06 4.677809626375341 8.831325207595665 27.111671058933172 -2 3 1
3192 178 6 -0.18 9.16758858545485 9.321488071159253 30.515150407032287 2 2 0
1274 71 14 0.03 4.734170142502345 9.472635109503116 22.86393019952274 -2 1 -3
3199 178 13 0.03 5.471597790826384 10.974440212081934 31.374202909987126 2 2 0
945 53 9 0.06 1.5590609971911644 8.645576758934798 26.677548373233986 2 -1 -1
1564 87 16 0.06 11.055274238577812 13.13120180600318 24.74907206148623 2 -1 -3
1566 87 18 0.06 10.475279503447146 14.71964360716681 24.18457247107205 2 -1 -3
2502 139 18 0.06 4.310757182005423 12.11686615737285 24.763417430482058 2 0 1
3379 188 13 0.03 10.061802386168944 8.179003709839613 22.041876330848346 3 0 -2
3550 198 4 -0.4 11.181290666075745 12.059971689956308 29.27100949620053 2 0 4
3201 178 15 0.03 7.698733219307195 10.894792842408348 30.34978660817432 2 2 0
3333 186 3 0.14 7.887955026956103 11.461537233633068 25.947516031671167 3 -1 -1
3203 178 17 0.06 8.85491183025971 9.043445329068758 29.48739930643867 2 2 0
1275 71 15 0.03 6.059736734764204 8.740385984359095 23.859724538494277 -2 1 -3
1265 71 5 0.14 5.35004239767121 8.571690619432331 23.068115180652395 -2 1 -3
3341 186 11 0.06 7.410564915318618 10.542998022611648 27.743255360774732 3 -1 -1
1273 71 13 0.03 7.596027996364889 9.512094527768841 22.08370426119176 -2 1 -3
3377 188 11 0.06 10.218908286734367 10.901568173927888 22.6317815959902 3 0 -2
2501 139 17 0.06 3.2598719645715364 11.37147114781177 25.877841007669108 2 0 1
3368 188 2 -0.12 11.014935769528403 10.15585050561151 22.655324022923942 3 0 -2
3373 188 7 0.06 10.581966867378306 9.295768959805095 24.73188551600984 3 0 -2
3202 178 16 0.06 10.11402313896982 9.883251886348038 30.575167408022708 2 2 0
1247 70 5 0.14 2.4691170416104575 13.724304897209285 30.157760579024576 1 -1 -2
1563 87 15 0.03 10.379770973890729 13.90064646806384 27.079726524293513 2 -1 -3
3564 198 18 0.06 10.498018942009113 14.360495613930237 30.67086801231723 2 0 4
427 24 13 0.03 3.3420151878687694 8.166516586325987 30.91328981190454 -2 3 1
3346 186 16 0.06 5.6332606704055666 12.599280549465835 22.877136213748322 3 -1 -1
2490 139 6 -0.18 3.616884213834107 11.277208416956265 24.879999417585598 2 0 1
429 24 15 0.03 5.229871673312117 8.508427786103343 29.39103872686575 -2 3 1
1256 70 14 0.03 3.557785771204673 13.817406038269782 30.17061538481031 1 -1 -2
3332 186 2 -0.12 7.013865241828199 11.389343476735071 27.163327794388888 3 -1 -1
572 32 14 0.03 5.84983941858999 14.654131171245547 30.620728126843293 1 2 0
1257 70 15 0.03 2.121030641323985 12.96517283713404 30.888081984666172 1 -1 -2
3190 178 4 -0.4 7.023009492989099 9.556936447869726 31.600923699211943 2 2 0
1246 70 4 -0.4 2.101435858288234 13.435144567593623 28.824483461136985 1 -1 -2