LAMMPS data file via write_data, version 29 Sep 2021, timestep = 1000000

5324 atoms
4 atom types
3993 bonds
3 bond types
2662 angles
2 angle types
1331 dihedrals
1 dihedral types

-1.7200132466995395 42.72001324671251 xlo xhi
-1.7200132466995395 42.72001324671251 ylo yhi
-1.7200132466995395 42.72001324671251 zlo zhi

Masses

1 15.999
2 12.011
3 14.007
4 1.008

Pair Coeffs # lj/cut/coul/long/omp

1 0.17 3.12
2 0.066 3.3
3 0.17 3.2
4 0 0

Bond Coeffs # harmonic/omp

1 449.88 1.25
2 650 1.157
3 553 0.945

Angle Coeffs # harmonic/omp

1 110.47 156
2 46.65 110.93

Dihedral Coeffs # opls/omp

1 -2 5 0 0

Atoms # full

2723 681 3 -0.3937 2.8938498029533193 1.286884565089695 8.681489238613644 -1 1 0
683 171 3 -0.3937 0.12040363862613179 5.098786029138918 3.9305088314128285 -1 3 1
186 47 2 0.3122 1.522375437458283 -1.6579144081663193 7.695224354033864 1 1 -2
2815 704 3 -0.3937 3.390631851234293 6.655692008621842 9.077619886965568 0 0 3
682 171 2 0.3122 -0.5583653636165851 4.210825358019098 3.9750391068478557 -1 3 1
681 171 1 -0.3784 -0.8349662655864023 2.9596989246752896 3.932200109555466 -1 3 1
1449 363 1 -0.3784 0.10071325955928567 6.783515077508679 6.590979004074167 -2 -2 -2
1452 363 4 0.4599 -0.3820538340789128 6.0454740207034945 6.299198251853484 -2 -2 -2
4442 1111 2 0.3122 1.9590345285380335 0.6856679724538133 4.0535539299105485 0 1 3
3627 907 3 -0.3937 3.6056639225932194 7.889912989990457 1.0569399125413035 0 -2 -1
4441 1111 1 -0.3784 2.5058533967426566 -0.3397523639755957 4.487914813120518 0 1 3
2907 727 3 -0.3937 -1.5910174654773925 8.450564882061407 0.9168312872339617 -1 -1 -2
5048 1262 4 0.4599 2.9554705608708813 3.837444185183389 2.220026624322538 -2 0 0
684 171 4 0.4599 -0.10962581743968425 2.45970254771939 3.6369505578460255 -1 3 1
2361 591 1 -0.3784 -1.4933542419163703 -0.5162364352620186 6.389371786573705 -1 0 0
4432 1108 4 0.4599 2.2592034321783894 4.596494004538914 6.582024195437816 1 1 1
939 235 3 -0.3937 2.3697291710202206 5.880652773096683 -1.4481603134093832 3 2 1
833 209 1 -0.3784 1.2460508619441681 -0.5986644006148343 0.8447061474107457 1 -1 1
4013 1004 1 -0.3784 -0.37515084371306284 5.7115159699615425 -1.488329156308027 2 -3 -1
4430 1108 2 0.3122 3.307134919799628 4.656162829568213 5.214375458739104 1 1 1
1451 363 3 -0.3937 -0.5974088199983238 8.372119782473584 5.025831220068994 -2 -2 -2
4431 1108 3 -0.3937 3.1666869534145796 3.9334618049086245 4.382072885687995 1 1 1
185 47 1 -0.3784 2.6192469155159124 -1.164158325559371 7.373462344798566 1 1 -2
834 209 2 0.3122 2.2492757205706164 -1.3299346129117642 0.9434018256504273 1 -1 1
4443 1111 3 -0.3937 1.3918592884615333 1.342629012136941 3.3150251605276506 0 1 3
2364 591 4 0.4599 -1.506605486989127 -0.9972705976246498 7.247033443854559 -1 0 0
4444 1111 4 0.4599 2.346464629404416 -1.0325424473784195 3.8600896190727285 0 1 3
195 49 3 -0.3937 3.3170702738189926 8.793601552440004 5.92046013588162 -1 -2 0
3625 907 1 -0.3784 1.287651771990608 8.184377471433072 1.4223431528350825 0 -2 -1
188 47 4 0.4599 2.788735651036556 -0.33453608968984105 7.843808020682979 1 1 -2
1450 363 2 0.3122 -0.13297340258823653 7.8064725145880205 5.852787267399778 -2 -2 -2
4016 1004 4 0.4599 0.5217759723432873 5.506035822075042 -1.460618410323127 2 -3 -1
4429 1108 1 -0.3784 2.9891727515527693 5.103695831855299 6.309301993658837 1 1 1
2431 608 3 -0.3937 1.0826224693615274 4.173473753906081 8.199820731219226 2 0 1
2579 645 3 -0.3937 -0.6547998799260939 -0.892832852584998 2.8809729566573736 2 -1 0
5045 1262 1 -0.3784 2.93201367402982 4.006236375312456 1.3160415347499992 -2 0 0
3628 907 4 0.4599 0.9741012263068389 8.250542517217957 0.5329573343736967 0 -2 -1
3626 907 2 0.3122 2.5331341857449763 8.015292539180699 1.496560614629174 0 -2 -1
2430 608 2 0.3122 0.7388003473128759 4.945666103578466 8.989946026460203 2 0 1
836 209 4 0.4599 0.7170824115978347 -0.6098630051988394 1.5946345685386727 1 -1 1
586 147 2 0.3122 -1.0890227252537261 0.5292567627530953 -0.7635751799196081 0 -3 1
2948 737 4 0.4599 -1.6043699329867391 2.685115407928085 8.606670069242618 3 2 2
585 147 1 -0.3784 -0.18278615347437177 0.5509312040775172 -1.6807580076112743 0 -3 1
4727 1182 3 -0.3937 1.2012670175605777 -1.4152235771409398 19.11128892917272 2 1 0
3363 841 3 -0.3937 2.0122026615318696 9.148850111444297 11.295324233727401 1 0 1
4625 1157 1 -0.3784 3.338377952000114 0.19127285302873354 13.230850854756769 1 1 0
404 101 4 0.4599 1.2721873138631843 1.8996121373924282 18.31968875028185 2 2 1
1807 452 3 -0.3937 -1.060049603775353 1.1544365254228988 10.076326457823708 2 1 2
1808 452 4 0.4599 -0.995655822776446 -0.7974609824684538 11.722765348678339 2 1 2
303 76 3 -0.3937 1.710179705234425 5.666112129012924 20.181782791237353 -1 0 0
91 23 3 -0.3937 -1.1140207986877089 8.049599408352838 17.59991015398394 -1 -1 -3
4626 1157 2 0.3122 2.7965985496478174 -0.8445599156942419 13.619442568465267 1 1 0
1581 396 1 -0.3784 -0.8407660933856429 9.285665349732662 11.186779402819635 -1 -1 -1
1399 350 3 -0.3937 -1.5326395882307766 -1.152251028093267 14.520079451776507 0 2 0
1942 486 2 0.3122 2.094823507980866 6.669001098363224 16.62285654801051 1 -2 0
2722 681 2 0.3122 2.856800939366332 1.9152593541072356 9.637572990592886 -1 1 0
2290 573 2 0.3122 1.0132910782992324 6.411192377467617 13.497453408049791 3 -3 0
1806 452 2 0.3122 -0.4117790739282874 0.31509579199089965 10.579530622737982 2 1 2
4495 1124 3 -0.3937 2.686801935702414 1.6178077506310269 16.981732682461615 2 1 -1
2289 573 1 -0.3784 0.5020627809787783 7.502975021914337 13.893267183139473 3 -3 0
5033 1259 1 -0.3784 0.6813675399974797 2.887119628521786 14.624011623260522 3 0 0
401 101 1 -0.3784 0.5144942146073761 1.7676206551091849 18.882226423482663 2 2 1
5035 1259 3 -0.3937 -1.55397346214846 2.6762922079553215 15.298365803549398 3 0 0
1944 486 4 0.4599 2.137062645680774 5.277979608101617 17.798399874934084 1 -2 0
402 101 2 0.3122 -0.351018511628292 2.5917654883447803 18.62399239603119 2 2 1
2724 681 4 0.4599 3.747526723525069 1.5446105485595825 11.149851268170446 -1 1 0
403 101 3 -0.3937 -0.7284798783233666 3.5520896670036386 18.12817365018585 2 2 1
5036 1259 4 0.4599 0.6183736054923659 3.713811926859095 14.172814997261826 3 0 0
1582 396 2 0.3122 -1.521514897441933 9.130453380257366 10.179607554477553 -1 -1 -1
2291 573 3 -0.3937 0.9803244689704103 5.274743067578496 13.235293480428169 3 -3 0
1941 486 1 -0.3784 1.7527703261643264 5.518987905501703 16.95994739789899 1 -2 0
5034 1259 2 0.3122 -0.40190828673526013 2.5966622908048347 15.149551827443458 3 0 0
1805 452 1 -0.3784 -0.235397252430811 -0.6901754698515465 11.201581627895914 2 1 2
2721 681 1 -0.3784 3.0541557012807807 2.167293161866099 10.876080453131754 -1 1 0
2292 573 4 0.4599 -0.4332990995094641 7.431722934549469 14.276819245059716 3 -3 0
1943 486 3 -0.3937 2.5752228274309212 7.688790416507124 16.788191484854472 1 -2 0
4494 1124 2 0.3122 3.1251621305179507 0.5935873193213712 16.714047735653644 2 1 -1
2429 608 1 -0.3784 0.8638688623435147 5.938858521082637 9.733889074772337 2 0 1
2432 608 4 0.4599 1.7411982394272998 6.285290199921433 9.746370897195478 2 0 1
1584 396 4 0.4599 0.04730183966491763 9.05510987581743 10.98886479839875 -1 -1 -1
4493 1124 1 -0.3784 3.734292857085542 -0.4488843115229575 16.977758948840435 2 1 -1
2600 650 4 0.4599 1.9232786268097801 9.28760179607824 20.378240461016507 1 0 -1
2597 650 1 -0.3784 0.9544171800017784 9.157223214847983 20.454499164812972 1 0 -1
1682 421 2 0.3122 0.7710802647953183 8.06568234678473 23.57990619318821 1 1 -1
5170 1293 2 0.3122 2.37766972097893 5.188113784278867 31.186229876626793 -1 0 -2
2099 525 3 -0.3937 1.8142761572225667 2.3883204091686787 25.832752787576563 1 1 1
304 76 4 0.4599 -0.2710964067609867 5.917937554288195 22.03541139148441 -1 0 0
301 76 1 -0.3784 -0.2520411071513622 5.211881682050709 21.392547869049043 -1 0 0
2522 631 2 0.3122 2.477512788580345 7.863247257630511 27.31104793758957 0 -3 0
4377 1095 1 -0.3784 -0.32719230089409845 9.114921853424926 29.154374323289648 -1 2 1
3691 923 3 -0.3937 -0.13484515341775527 -0.0696140164403729 27.69259636871302 2 0 1
1684 421 4 0.4599 1.2965384466652774 8.506655138423907 25.281312156150406 1 1 -1
2524 631 4 0.4599 3.117477293563513 7.644998178173508 28.870893901528824 0 -3 0
2100 525 4 0.4599 1.0795508372359246 4.542171479995196 27.400114301180032 1 1 1
2521 631 1 -0.3784 3.328138599083694 7.333311986543875 28.035596744325535 0 -3 0
2098 525 2 0.3122 2.1274030561782586 3.319778266977031 26.388112836714097 1 1 1
2097 525 1 -0.3784 1.974895445765011 4.349927496957431 27.16192263675666 1 1 1
1718 430 2 0.3122 0.8325022629709504 2.1594513510933906 30.743847016935458 -1 3 -1
3690 923 2 0.3122 -0.2808458729439225 -0.17854578592193282 26.52917039924482 2 0 1
1720 430 4 0.4599 0.318924729545208 1.104538774976067 29.44308066389786 -1 3 -1
4379 1095 3 -0.3937 -1.0906474118496166 7.063961798819265 29.999021756885835 -1 2 1
5171 1293 3 -0.3937 3.3204025165083646 5.257380678971839 30.514142878725036 -1 0 -2
4380 1095 4 0.4599 -0.08828531986073473 8.792105790571611 28.306958516074374 -1 2 1
1681 421 1 -0.3784 1.4481637252652086 8.732482961961525 24.368483603136085 1 1 -1
1719 430 3 -0.3937 1.7648008535357926 1.9653890569711432 31.386168916526426 -1 3 -1
5172 1293 4 0.4599 0.9663221027520212 6.384433122709393 31.266847629176016 -1 0 -2
2523 631 3 -0.3937 1.6021987430650422 8.54101504150455 27.10575673182399 0 -3 0
1717 430 1 -0.3784 0.08141854450081287 1.9855315438354102 29.749095462382975 -1 3 -1
2421 606 1 -0.3784 3.6103340068968643 -0.79151347221578 26.320252321342196 -2 3 0
1757 440 1 -0.3784 3.4864582457728197 0.7154351678051649 21.39724259589424 0 3 -1
1683 421 3 -0.3937 -0.04801973619150335 7.293212302817142 23.302345845649352 1 1 -1
4147 1037 3 -0.3937 -0.6028412339971188 5.279968971658365 27.340870825139877 1 2 -3
4411 1103 3 -0.3937 2.673235495718253 8.403309112225998 30.77111288362489 3 0 1
4378 1095 2 0.3122 -0.713861830732186 8.154479133255553 29.881902754969882 -1 2 1
3692 923 4 0.4599 0.15337821458732748 0.948880425392389 25.112485390325745 2 0 1
3192 798 4 0.4599 3.4874409360149725 6.9886072112581585 22.73495649488984 2 5 -2
2422 606 2 0.3122 3.5771909511816187 -0.6203381814243851 25.08303245646634 -2 3 0
4410 1103 2 0.3122 3.6031623623932143 8.80732695821852 31.30461958659846 3 0 1
3689 923 1 -0.3784 -0.06626482252361576 0.05869873366903855 25.322917517907175 2 0 1
3189 798 1 -0.3784 3.0082913347377893 6.201945252020133 22.780389705519877 2 5 -2
3190 798 2 0.3122 3.7492755244395264 5.395766560384159 23.426141612695453 2 5 -2
302 76 2 0.3122 0.7276760388202199 5.203027849451467 20.675204208996107 -1 0 0
2471 618 3 -0.3937 -0.23365137296593663 -1.2626471222880702 31.368935603699125 0 0 0
1760 440 4 0.4599 3.6308051445937473 0.6550606083160428 22.348542493300368 0 3 -1
2887 722 3 -0.3937 -1.2173843382065415 8.727365222730143 25.74279876993057 -2 -1 1
5155 1289 3 -0.3937 3.8183933139209207 8.601874116416235 20.570794208857848 1 1 2
3709 928 1 -0.3784 3.42683347521627 8.341299928480574 36.072942086128776 0 -2 -2
2753 689 1 -0.3784 -0.9044978994452318 -1.125092314907001 33.970678239534784 1 1 -1
3175 794 3 -0.3937 0.49924202574545107 4.009226952858034 38.2759326606484 -1 2 2
41 11 1 -0.3784 0.22869877197562127 6.112335366417582 36.39513706786675 -2 -2 2
4357 1090 1 -0.3784 -0.5099310876594074 1.2097529697559766 36.8155001900229 1 1 -1
656 164 4 0.4599 0.11394887612538951 3.286860988290565 33.67568465179253 0 -2 1
4358 1090 2 0.3122 -0.45798311817524895 0.9816426366782423 38.03895306319164 1 1 -1
2106 527 2 0.3122 3.3844365733173882 0.6140445891905115 38.88545954096688 0 0 3
2756 689 4 0.4599 -0.6439117891799437 -1.0888860226055255 33.0252014658827 1 1 -1
4015 1004 3 -0.3937 -1.0990000416265595 3.720053158703596 41.98135932776852 2 -3 -2
3176 794 4 0.4599 2.2711269770351104 3.0335924111130694 40.10500577545903 -1 2 2
3604 901 4 0.4599 -0.3192121815899631 8.583282872167995 33.73466020482078 0 2 -1
3174 794 2 0.3122 0.8473347320180931 4.073604870024326 39.37032044144345 -1 2 2
42 11 2 0.3122 0.8491363354440089 5.603817060084019 35.426502482579146 -2 -2 2
1946 487 2 0.3122 -1.183542343185843 8.439850681663826 39.71254101853171 -2 -2 0
653 164 1 -0.3784 -0.4795870297262872 2.5349674769622093 33.55144753883941 0 -2 1
588 147 4 0.4599 -0.3081264776805299 1.2832369934590953 42.20539595194659 0 -3 0
2107 527 3 -0.3937 3.142603508441634 1.4339954644084025 39.63692308374078 0 0 3
3173 794 1 -0.3784 1.6634277033643834 3.7422309242028273 40.33386238710353 -1 2 2
4360 1090 4 0.4599 -1.2086228398154475 1.831862266952277 36.74391700602137 1 1 -1
5169 1293 1 -0.3784 1.3387958795800146 5.63165038150973 31.688656427229926 -1 0 -2
654 164 2 0.3122 -1.624271334600114 3.023598951776231 33.3369786446135 0 -2 1
2094 524 2 0.3122 3.776071876042046 2.68478229072855 34.80963474857162 -2 -3 -2
4014 1004 2 0.3122 -0.9822232610752 4.699296061231383 42.52847162665376 2 -3 -2
4973 1244 1 -0.3784 2.543844091242687 8.728943064117235 40.17504195703033 1 -1 -3
3601 901 1 -0.3784 -0.5905625563002095 7.913930429516998 33.072161005892525 0 2 -1
1644 411 4 0.4599 3.439045789791356 1.0953674566217864 32.1951014981084 2 1 1
43 11 3 -0.3937 1.5403979789490443 4.897716758651832 34.860893927114454 -2 -2 2
2105 527 1 -0.3784 3.515472432633609 0.10955140331965607 37.7430130594259 0 0 3
3710 928 2 0.3122 2.2249417314203077 8.697572715510013 35.988410432926955 0 -2 -2
938 235 2 0.3122 3.254019639030985 6.552953208526675 42.63469032351434 3 2 0
2095 524 3 -0.3937 3.300791527461909 1.8337761642531751 35.45042421931027 -2 -3 -2
457 115 1 -0.3784 2.196493013983991 -1.5383202912163598 41.078186368767696 -2 0 -3
4975 1244 3 -0.3937 1.758958213961013 6.931764510747397 38.81543693059498 1 -1 -3
44 11 4 0.4599 0.302181863802353 5.528703048732312 37.15389171259646 -2 -2 2
2108 527 4 0.4599 3.4218391577381153 0.797221100523281 37.07288467821147 0 0 3
3711 928 3 -0.3937 1.3611330596971591 9.166261913187466 35.441939766158704 0 -2 -2
4359 1090 3 -0.3937 -0.8119807910571799 1.0323455041532241 39.111785646979584 1 1 -1
4974 1244 2 0.3122 2.138121530704683 7.643228632561992 39.62210327650512 1 -1 -3
3157 790 1 -0.3784 1.7877229915505979 10.156151688317872 7.724099439871868 -1 3 4
3221 806 1 -0.3784 -1.4951191489327738 14.254698607840504 4.984054535638214 0 2 2
472 118 4 0.4599 0.11710284947110594 14.572541211784875 1.1351693765646211 0 1 3
3427 857 3 -0.3937 0.4521762658526194 14.205038162545577 8.781273209610003 1 -1 1
4344 1086 4 0.4599 0.14037797933336704 12.02140094216538 -0.6034760336452804 2 6 2
1755 439 3 -0.3937 2.5310156707541402 19.179412579058106 6.211397769604238 1 1 -1
1753 439 1 -0.3784 1.0600215930419636 18.41803203998198 7.8233773632707235 1 1 -1
3222 806 2 0.3122 -1.4579872134482852 14.299028672315222 3.7367897489165895 0 2 2
3159 790 3 -0.3937 1.417035299348903 12.01716107546961 6.372236098851409 -1 3 4
471 118 3 -0.3937 -0.4066251006881916 16.92115436710299 0.20190436865862163 0 1 3
2042 511 2 0.3122 -1.1952158630142933 17.661773880712264 5.4031564477397565 -1 0 4
2757 690 1 -0.3784 2.4481589322233903 15.072348617216212 7.268914608810677 2 1 3
2759 690 3 -0.3937 1.0819923762581005 15.678938191358798 5.46789841235232 2 1 3
3160 790 4 0.4599 2.269468791441689 9.6795581858632 7.066147519474443 -1 3 4
2189 548 1 -0.3784 1.268420292620417 11.102779449595921 3.582241907525498 1 -1 -1
4341 1086 1 -0.3784 0.41205106485260834 11.637587350019038 -1.4532486307603925 2 6 2
355 89 3 -0.3937 1.361934721474466 18.225304581562774 2.6614897858391062 1 -1 1
2972 743 4 0.4599 3.4033564241709797 12.468918630355283 0.1944741291999375 1 0 3
415 104 3 -0.3937 3.17438562726364 13.253032601049759 3.2442005067068056 -1 1 2
3426 857 2 0.3122 -0.6815750918275583 14.389232064132964 8.921302341857361 1 -1 1
414 104 2 0.3122 2.6963174207387564 14.329860044864501 3.1833407329098673 -1 1 2
354 89 2 0.3122 0.9061391642193863 19.142075152510586 2.0972590384781356 1 -1 1
3224 806 4 0.4599 -0.6064658489960628 14.596396037756014 5.288909961125708 0 2 2
2969 743 1 -0.3784 3.1546366420544194 11.559677977689848 0.4958738895195952 1 0 3
2191 548 3 -0.3937 0.18142899059882844 12.11850974765342 1.769320730323921 1 -1 -1
416 104 4 0.4599 2.0310223810682846 15.997798376371678 3.2889083417190106 -1 1 2
2760 690 4 0.4599 1.7468330635171399 14.632204221904521 7.81325157006102 2 1 3
356 89 4 0.4599 -0.16319225370235468 19.090461439270193 0.7192253165970666 1 -1 1
2190 548 2 0.3122 0.8943732021645465 11.519172128426572 2.4632831714958336 1 -1 -1
469 118 1 -0.3784 0.45779965269599576 14.765619674075785 0.25342090032400166 0 1 3
4342 1086 2 0.3122 0.9869787447955163 10.500754182889555 -1.4946801037545396 2 6 2
353 89 1 -0.3784 0.20018351567057935 19.77370863041011 1.2914609001946014 1 -1 1
470 118 2 0.3122 0.005643118617681742 15.880055663794456 -0.02115094987919328 0 1 3
2192 548 4 0.4599 0.812836236196895 11.59008518342943 4.2356680396116175 1 -1 -1
3223 806 3 -0.3937 -0.9813221016578394 14.604753786616135 2.7009945286530743 0 2 2
1754 439 2 0.3122 2.025964552997582 18.764381657463222 7.192218320906533 1 1 -1
413 104 1 -0.3784 2.290347268800713 15.367116846017948 2.6349494278129963 -1 1 2
1756 439 4 0.4599 0.2344115505007507 18.246401291327235 7.325989284333379 1 1 -1
3158 790 2 0.3122 1.4652082690148858 11.21961310081596 7.244647576464072 -1 3 4
2043 511 3 -0.3937 -1.222315479145757 17.679502822446032 6.561873957285357 -1 0 4
2758 690 2 0.3122 1.8993581657350391 15.565118845965406 6.1933983786041615 2 1 3
3500 875 4 0.4599 3.7244344641400104 18.20765232929812 4.372662508852281 2 -1 0
2041 511 1 -0.3784 -1.4744785972011605 18.149955237823825 4.28123415952405 -1 0 4
4343 1086 3 -0.3937 1.5480055410143414 9.558601970024066 -1.1779607520896611 2 6 2
31 8 3 -0.3937 -0.3898196642519831 19.242985742143222 10.981384475096627 1 0 1
5053 1264 1 -0.3784 0.22421405898888258 14.957026740273088 15.224603642242432 2 2 2
3558 890 2 0.3122 0.5166974678376606 12.145463443106165 11.855187849529802 -2 0 1
3472 868 4 0.4599 3.0132548997483513 17.918160722857987 16.504749023240283 2 -2 2
778 195 2 0.3122 2.2983853713413005 13.70842368894402 17.98202779880747 -3 3 -1
3251 813 3 -0.3937 0.7208186569749666 20.34588177881898 14.857905762560476 4 -1 -1
3320 830 4 0.4599 3.6627398931510005 10.459848120637254 16.088434124661415 0 3 -1
4645 1162 1 -0.3784 -1.317526728963617 18.806972298584856 13.988096382920585 0 0 0
2063 516 3 -0.3937 1.176811537293468 12.262797923196436 15.552852481718876 -2 -3 2
2061 516 1 -0.3784 0.6138405996790819 10.261721573576478 16.61468935034022 -2 -3 2
4231 1058 3 -0.3937 1.5312602702418971 15.529771195521265 11.810270652563657 1 -1 -2
2064 516 4 0.4599 -0.3204219987277155 10.311994972269638 16.501519399563893 -2 -3 2
3559 890 3 -0.3937 -0.4763106759163489 12.174382591452703 11.296855316580755 -2 0 1
3471 868 3 -0.3937 3.663703209870267 17.385607844358187 19.032395542060428 2 -2 2
5054 1264 2 0.3122 0.778840021091652 16.03983423771771 15.479776005537717 2 2 2
5101 1276 1 -0.3784 -1.5371120611257538 16.162317681286442 18.467403516438733 -3 1 2
5055 1264 3 -0.3937 1.6202784899660576 16.67491118059816 15.866381539536363 2 2 2
5056 1264 4 0.4599 0.8371241815550141 14.257091845366292 15.40311193052859 2 2 2
4230 1058 2 0.3122 1.8421333747979267 16.481580930621664 11.243464800189827 1 -1 -2
3055 764 3 -0.3937 3.82192421960736 14.612005108797257 13.869919109471502 2 -2 1
5103 1276 3 -0.3937 -0.04990178951712321 17.936075662244285 18.863308948721794 -3 1 2
3469 868 1 -0.3784 3.106031453803361 18.71598201841078 17.085619453078753 2 -2 2
2062 516 2 0.3122 1.182097071654195 11.26655158173208 16.13466555997792 -2 -3 2
3557 890 1 -0.3784 1.6098996242977084 12.589971820879972 12.31633783738357 -2 0 1
2598 650 2 0.3122 0.31723731083270157 10.167700724683803 20.18805680783205 1 0 -1
5102 1276 2 0.3122 -0.622898346915502 16.937982132608834 18.83857750439806 -3 1 2
4229 1058 1 -0.3784 1.7044570756004036 17.617532082186095 10.583123075998918 1 -1 -2
3560 890 4 0.4599 1.575234715479031 13.53394945333672 12.192883907935446 -2 0 1
4232 1058 4 0.4599 0.7855612289053953 17.906415163814724 10.54518137108886 1 -1 -2
2599 650 3 -0.3937 0.24023591644786535 11.295102884689706 19.927937169151804 1 0 -1
779 195 3 -0.3937 3.4057725501862004 13.496291690958087 17.661018909239314 -3 3 -1
777 195 1 -0.3784 1.1307243552085768 13.620194916656429 18.40034463346489 -3 3 -1
4648 1162 4 0.4599 -0.7707313632570894 19.513060908103412 14.415989489288643 0 0 0
30 8 2 0.3122 -1.1396944225495564 20.065805921035047 10.861389197810556 1 0 1
780 195 4 0.4599 1.013378767823229 12.928758690564859 19.08389990511171 -3 3 -1
3470 868 2 0.3122 3.381934202332192 18.204041256626663 18.22345522405191 2 -2 2
1291 323 3 -0.3937 -1.6339564107899074 16.315781596496045 11.559259556562166 1 3 2
3362 841 2 0.3122 3.0054606246289364 9.704427670422533 11.040791582284355 1 0 1
2000 500 4 0.4599 1.3706680317105817 19.660100506023618 31.081504252620768 -1 -3 1
4092 1023 4 0.4599 -0.10982399235483609 11.692301412984676 23.301022519809763 0 1 4
1997 500 1 -0.3784 2.2285019721974244 19.23560841849206 31.28868806364683 -1 -3 1
2450 613 2 0.3122 1.6164909678653385 19.47655689428736 26.262070306958833 3 0 1
3248 812 4 0.4599 -0.2527484708288379 12.72003521956788 30.65943252194346 1 -1 2
2496 624 4 0.4599 3.254697904942912 18.603501940217033 24.167749742355298 1 3 0
4091 1023 3 -0.3937 -0.6549364178949346 12.255409847611794 26.024445008578486 0 1 4
991 248 3 -0.3937 0.787133760493423 14.14364729106049 30.000968660969747 1 0 -1
2441 611 1 -0.3784 -0.8031926439525284 16.34743851341749 26.638878512298163 1 0 -2
992 248 4 0.4599 0.6381815590565718 15.409548598310218 27.683819115538455 1 0 -1
1999 500 3 -0.3937 1.7749517417509335 17.443712538305686 29.771559239428917 -1 -3 1
4089 1023 1 -0.3784 0.5379885592035538 11.986403848990083 23.995650245317844 0 1 4
3046 762 2 0.3122 3.702453403331023 12.88294313801814 25.120446898150984 -2 0 0
2003 501 3 -0.3937 -1.462993797914303 10.868652267485938 22.756779928642032 1 0 5
4090 1023 2 0.3122 0.0799469431694344 12.230907604000572 25.13299444373907 0 1 4
989 248 1 -0.3784 1.4656826892654229 15.059541399094512 27.982290891993998 1 0 -1
4594 1149 2 0.3122 2.6642573151167728 14.310970605836493 21.473466866605868 3 2 0
2444 611 4 0.4599 -1.4628721386634793 17.032215165601958 26.709102035569508 1 0 -2
990 248 2 0.3122 1.3614157426693965 14.4049591815147 29.038018496568853 1 0 -1
3245 812 1 -0.3784 -0.7964594491460398 11.912985842897847 30.630127251776337 1 -1 2
2451 613 3 -0.3937 1.457130586553349 19.225008555306047 25.14939317097372 3 0 1
3635 909 3 -0.3937 -0.15163286316712976 20.019875737459863 30.472733273246707 1 1 0
4595 1149 3 -0.3937 2.696534044142389 13.200943708350675 21.09229663687979 3 2 0
942 236 2 0.3122 -1.1198801463856107 19.292471579152128 21.9592153048366 -3 -1 0
1998 500 2 0.3122 2.184372099977624 18.203269286061353 30.57757446394086 -1 -3 1
2449 613 1 -0.3784 2.278645590176362 19.79570875167175 27.278672204016832 3 0 1
3246 812 2 0.3122 -0.37910994504450324 11.180022526604459 31.499251637264457 1 -1 2
4593 1149 1 -0.3784 2.662158413619201 15.284654568915192 22.2129466733358 3 2 0
941 236 1 -0.3784 -0.21492608412225067 18.505208194790004 21.6747078250079 -3 -1 0
4596 1149 4 0.4599 2.596730162026298 14.919708159500887 23.139097405108462 3 2 0
2452 613 4 0.4599 3.222687438361721 19.722404488574337 27.187264141802018 3 0 1
2442 611 2 0.3122 -0.8701923206482127 15.679262649440313 25.607204418075582 1 0 -2
2443 611 3 -0.3937 -1.4060059244769518 15.268696622338043 24.656422384905486 1 0 -2
944 236 4 0.4599 -0.11521687764707034 18.445551441922753 20.767696702938885 -3 -1 0
3022 756 2 0.3122 3.6874497684785172 11.897886429174372 29.516647261937404 1 1 -2
3023 756 3 -0.3937 3.657634320229419 12.570070613752343 28.6147815160735 1 1 -2
3047 762 3 -0.3937 3.4214848573146863 13.953694691653999 25.44393082001122 -2 0 0
3275 819 3 -0.3937 -0.21852264510234187 17.337392741737215 33.381182920137206 3 -1 -3
5160 1290 4 0.4599 2.4516583831855927 15.494439753971728 40.53842928294945 2 0 -1
3274 819 2 0.3122 0.10636568044298733 16.26517007589706 33.70788267131008 3 -1 -3
334 84 2 0.3122 2.8027351570680894 11.95266430335629 34.396231222009014 0 -1 -3
336 84 4 0.4599 1.1743767927707045 11.52067259308612 34.699427474712685 0 -1 -3
1354 339 2 0.3122 3.0599184601322573 16.739488663894203 36.918304998507104 0 -1 2
3276 819 4 0.4599 1.8137824493992898 15.659003679665561 34.20240389027774 3 -1 -3
1509 378 1 -0.3784 0.6112871658734609 18.803261402588845 35.63970151515591 1 1 -1
3340 835 4 0.4599 3.380927676999324 20.429895252202584 42.573315532682365 2 2 1
3549 888 1 -0.3784 -0.19054159905575596 14.190886396218408 37.06037558486747 1 3 1
1355 339 3 -0.3937 2.6704693785857234 16.028649641084446 36.07209547116522 0 -1 2
4771 1193 3 -0.3937 2.7024958511704167 13.900742103803038 41.46891508753305 1 -2 1
3219 805 3 -0.3937 2.341190551432385 11.40985928906777 38.09191566657782 0 0 -1
1353 339 1 -0.3784 3.7231705531748265 17.711892084868566 37.35338141604274 0 -1 2
3273 819 1 -0.3784 0.9346822925780518 15.363564634035788 34.02293125852566 3 -1 -3
3247 812 3 -0.3937 0.2859355444418472 10.927271813859173 32.43224184180114 1 -1 2
1510 378 2 0.3122 -0.06736773365113446 19.62811198849013 36.181437676463865 1 1 -1
3337 835 1 -0.3784 3.0956238957154456 19.870139952711114 41.83238279412281 2 2 1
946 237 2 0.3122 -1.3382622001669797 17.15011805752396 38.83691590140774 -1 2 -1
3552 888 4 0.4599 -0.1317537584092987 15.165833398135314 37.08808698149586 1 3 1
5157 1290 1 -0.3784 2.1181900838762138 16.13939760896171 39.9245430862544 2 0 -1
5159 1290 3 -0.3937 0.9989480755832851 17.66739684897642 41.249556631412325 2 0 -1
5158 1290 2 0.3122 1.4694008515345056 17.04624122675113 40.388306463814736 2 0 -1
947 237 3 -0.3937 -1.12423522284233 16.864472855981834 37.762615487795436 -1 2 -1
2793 699 1 -0.3784 -1.0883440879924198 19.07223800867764 42.485155624796306 2 0 1
3217 805 1 -0.3784 3.6315844018429395 13.291982114589326 37.47041712421254 0 0 -1
3550 888 2 0.3122 -0.12211073068894174 13.633978025465021 38.18084193180454 1 3 1
333 84 1 -0.3784 1.6871869176817145 12.266625025677438 34.78838405836986 0 -1 -3
4770 1193 2 0.3122 3.52824319924033 13.141071467454513 41.264856907182555 1 -2 1
2794 699 2 0.3122 -0.8380488071678698 20.283800960567582 42.633555029048885 2 0 1
1945 487 1 -0.3784 -0.5493846696666524 9.488276810487248 39.40911452759541 -2 -2 0
3218 805 2 0.3122 2.8998975963407494 12.261825862837936 37.512216178981035 0 0 -1
3551 888 3 -0.3937 0.02205112315627722 13.56985631447537 39.35001234262845 1 3 1
1948 487 4 0.4599 -0.8416332668151199 9.786933292217311 38.50667031900322 -2 -2 0
1512 378 4 0.4599 0.1984756545640276 18.33717834109858 34.8831097028856 1 1 -1
2796 699 4 0.4599 -0.4060217309261427 18.472742442115912 42.21901879727195 2 0 1
1908 477 4 0.4599 -0.42864300084915197 14.157595537325662 40.957265188677354 3 1 -3
335 84 3 -0.3937 3.724020832102915 11.203995765729243 34.24357582313582 0 -1 -3
1511 378 3 -0.3937 -1.0482506261022 20.187478289776266 36.46646410819426 1 1 -1
1905 477 1 -0.3784 -0.8487428269424527 14.717145867356278 41.64263755865305 3 1 -3
2085 522 1 -0.3784 3.8223423109551806 16.15971580425535 32.70475926286024 -5 -1 1
4976 1244 4 0.4599 2.6020045459227266 9.464126021255508 39.59566051987689 1 -1 -3
4193 1049 1 -0.3784 -0.024316502495420167 29.19364341468422 2.495906119377843 0 0 2
4703 1176 3 -0.3937 0.9530319090683814 28.054342740603207 8.291207555752052 -2 0 -1
5105 1277 1 -0.3784 2.799874459867766 26.121387408763354 0.13361791353591915 1 -3 2
3293 824 1 -0.3784 2.1855644208899436 22.730314823180525 5.354677596410259 2 0 1
2795 699 3 -0.3937 -0.22997782800489097 21.29720964654814 -1.667188345233526 2 0 2
3294 824 2 0.3122 2.461699926566384 23.827703806468275 5.886897656662059 2 0 1
4796 1199 4 0.4599 -1.31977724884453 23.552502464222087 3.9761012786486063 -2 -2 3
2266 567 2 0.3122 -1.2442237667623992 25.793130839994777 0.2852510928963821 1 3 -1
1739 435 3 -0.3937 -0.11114913824313355 21.634463163093184 6.801579171054585 -1 3 0
4701 1176 1 -0.3784 -1.3436219504842577 27.689953713560616 7.842861099581574 -2 0 -1
2267 567 3 -0.3937 -1.0589244024975395 25.73414868409675 -0.8556493601143905 1 3 -1
562 141 2 0.3122 -1.2777963842576272 29.044142755934985 -0.8157917987372802 2 -3 1
1420 355 4 0.4599 3.328927403968537 21.76117231867724 2.097146501647481 -1 -1 -2
5107 1277 3 -0.3937 2.773862419048924 28.175161885055157 -0.9884420036872673 1 -3 2
2740 685 4 0.4599 0.325424667956409 22.623854481926305 -0.4200781320798241 0 0 -1
5108 1277 4 0.4599 3.117301643505961 25.54220212588723 -0.5278992944708709 1 -3 2
2239 560 3 -0.3937 0.294694205301967 31.3860684544026 6.261329431329054 -1 1 2
2737 685 1 -0.3784 0.6673037188310638 23.328433023453343 0.1216254641203779 0 0 -1
1305 327 1 -0.3784 1.4007315988905435 25.09850242992951 9.179868896912264 2 2 -1
4194 1049 2 0.3122 0.8959113951793742 30.013815466071865 2.513071308018533 0 0 2
4196 1049 4 0.4599 -0.34188978391502833 29.12542578779225 1.601454127906776 0 0 2
3295 824 3 -0.3937 2.181558714675906 24.758444806609262 6.537528262585942 2 0 1
1738 435 2 0.3122 -1.1620632019319745 21.385288795894542 7.201722750093385 -1 3 0
4702 1176 2 0.3122 -0.21298559245373183 27.94308124130445 8.244046888221469 -2 0 -1
4195 1049 3 -0.3937 1.6607710034795187 30.747604737052523 2.946800217655536 0 0 2
4704 1176 4 0.4599 -1.3444931304599175 27.555395623874627 6.8779511994854 -2 0 -1
1307 327 3 -0.3937 -0.8527902204188641 24.691706181194043 8.743549143744472 2 2 -1
2738 685 2 0.3122 0.1324600734205239 23.350819669247 1.2681138325560672 0 0 -1
1812 453 4 0.4599 1.941847587626597 29.746006711262744 8.659987064331137 0 2 -1
1306 327 2 0.3122 0.2489334694129608 24.672691013983506 9.123394672611218 2 2 -1
1308 327 4 0.4599 1.8507947283798554 24.98442353341666 8.360636986023826 2 2 -1
4793 1199 1 -0.3784 -1.1291591667041119 23.61571727933017 4.886197374514245 -2 -2 3
1809 453 1 -0.3784 1.8850466858540795 30.646002700804996 8.946918131556856 0 2 -1