LAMMPS data file via write_data, version 29 Aug 2024, timestep = 1000000, units = real

7168 atoms
14 atom types
6656 bonds
13 bond types
11264 angles
22 angle types
10240 dihedrals
20 dihedral types
3584 impropers
7 improper types

0.7954324742483188 44.20456752574255 xlo xhi
0.7954324742483188 44.20456752574255 ylo yhi
0.7954324742483188 44.20456752574255 zlo zhi

Masses

1 12.011
2 12.011
3 15.999
4 12.011
5 15.999
6 12.011
7 1.008
8 1.008
9 1.008
10 1.008
11 1.008
12 1.008
13 1.008
14 1.008

Pair Coeffs # lj/cut/coul/long

1 0.066 3.5
2 0.066 3.5
3 0.17 3
4 0.105 3.75
5 0.21 2.96
6 0.066 3.5
7 0.03 2.5
8 0.03 2.5
9 0.03 2.5
10 0.015 2.42
11 0.015 2.42
12 0.03 2.5
13 0.03 2.5
14 0.03 2.5

Bond Coeffs # harmonic

1 268 1.529
2 320 1.41
3 214 1.327
4 570 1.229
5 317 1.522
6 340 1.09
7 340 1.09
8 340 1.09
9 340 1.09
10 340 1.09
11 340 1.09
12 340 1.09
13 340 1.09

Angle Coeffs # harmonic

1 50 109.5
2 83 116.9
3 83 123.4
4 81 111.4
5 37.5 110.7
6 37.5 110.7
7 37.5 110.7
8 37.5 110.7
9 37.5 110.7
10 35 109.5
11 35 109.5
12 35 109.5
13 80 120.4
14 33 107.8
15 33 107.8
16 33 107.8
17 35 109.5
18 33 107.8
19 33 107.8
20 33 107.8
21 33 107.8
22 35 109.5

Dihedral Coeffs # opls

1 -1.22 -0.126 0.422 0
2 0 5.124 0 0
3 0 0 0.468 0
4 0 0 0.132 0
5 0 0 0 0
6 0 0 0.3 0
7 0 0 0.132 0
8 0 0 0.132 0
9 4.669 5.124 0 0
10 0 0 0.3 0
11 0 0 0.3 0
12 0 0 0 0
13 0 0 0.3 0
14 0 0 0.3 0
15 0 0 0.3 0
16 0 0 0.468 0
17 0 0 0.468 0
18 0 0 0.198 0
19 0 0 0.198 0
20 0 0 0 0

Improper Coeffs # cvff

1 10.5 -1 2
2 0 -1 2
3 0 -1 2
4 0 -1 2
5 0 -1 2
6 0 -1 2
7 0 -1 2

Atoms # full

1425 102 11 0.03 8.61211927391528 4.782436570301085 2.3424337879281927 -2 1 2
1416 102 2 0.19 8.635718599446722 5.396832297284713 1.3761385604236689 -2 1 2
2913 209 1 -0.18 0.8437628976564532 8.192558476266878 2.266596238281326 1 0 -1
1418 102 4 0.51 8.440972251777309 7.680097520437642 2.0949192787155115 -2 1 2
37 3 9 0.06 11.163129160314881 0.8355517324706117 4.011532830860889 0 -1 3
1404 101 4 0.51 6.254106559404634 2.117054226744156 2.4446958471959377 0 2 1
4675 334 13 0.06 8.022546228269583 4.665795593943553 5.176573568631537 0 2 4
4672 334 10 0.03 4.717619353743075 8.06685389435037 4.855299339496586 0 2 4
6068 434 6 -0.18 2.850926857346156 5.355656257257355 5.271830065232867 1 0 -2
832 60 6 -0.18 4.3809621013157845 5.503372669552018 1.468855050040862 0 -1 1
1428 102 14 0.06 6.4148336238560475 8.163106246638705 2.629887049844268 -2 1 2
828 60 2 0.19 1.6796138659944175 3.1048188351629604 1.764253077995581 0 -1 1
1406 101 6 -0.18 5.819970905070572 3.3409318168824544 3.263206680862593 0 2 1
2923 209 11 0.03 2.6559253849961566 8.03204304424294 3.310056192910408 1 0 -1
4674 334 12 0.06 8.934600518598108 6.255236702585943 4.785634532419796 0 2 4
4670 334 8 0.06 6.2922568034115915 9.896805040764901 5.189366539501025 0 2 4
3058 219 6 -0.18 10.997567246427177 10.71150481266191 3.411621630975813 -1 1 -1
1420 102 6 -0.18 7.3478000273692485 8.725101927864824 2.3983955301939948 -2 1 2
833 60 7 0.06 1.7479265679015301 2.761442280210691 3.839430899392929 0 -1 1
4664 334 2 0.19 5.4385734035896585 7.972896963476408 5.592359398709597 0 2 4
1419 102 5 -0.43 9.609464166066667 7.714631072234606 2.479607119633002 -2 1 2
2914 209 2 0.19 2.31644313020476 8.538471224223962 2.3829143153273566 1 0 -1
840 60 14 0.06 4.367730511527656 5.848350881428888 2.5356300749378864 0 -1 1
6075 434 13 0.06 2.8165080558350706 6.130624630426948 4.547999462903771 1 0 -2
827 60 1 -0.18 1.4895444496818786 2.158557762014839 2.974376332391044 0 -1 1
829 60 3 -0.33 2.9678767705820825 3.626173203149984 1.9581679219482975 0 -1 1
1424 102 10 0.03 9.659474706868155 5.603014679521072 1.185039883577288 -2 1 2
1417 102 3 -0.33 7.9064125385224155 6.570943652797049 1.515955618114941 -2 1 2
2915 209 3 -0.33 2.4480572644891074 9.97682149018754 2.6042814684632223 1 0 -1
4663 334 1 -0.18 5.809204325782627 9.366638048827868 6.01019711655901 0 2 4
2922 209 10 0.03 2.8384811994080095 8.37487424154749 1.482396833546325 1 0 -1
2916 209 4 0.51 3.609507039201459 10.494069669052633 2.7690327832052875 1 0 -1
29 3 1 -0.18 11.514831126553092 1.5695880948157137 4.708173667899759 0 -1 3
1426 102 12 0.06 7.124116330614666 9.401310597918194 1.532000145145434 -2 1 2
4668 334 6 -0.18 8.37936155902558 5.649553000952843 5.522456385364708 0 2 4
3066 219 14 0.06 11.199270933538074 10.269976461075515 2.3755758565637386 -1 1 -1
2810 201 10 0.03 11.58677488983105 7.941051426026155 3.9911463123251893 -1 1 1
1427 102 13 0.06 7.678122198751947 9.348853604976325 3.2095064410791783 -2 1 2
1413 101 13 0.06 6.191317374714123 4.294745373280982 2.8751739494463555 0 2 1
2917 209 5 -0.43 4.692243119636901 9.85476070102488 2.757999415149393 1 0 -1
834 60 8 0.06 1.9524156738860943 1.1892254121884434 2.831718658014347 0 -1 1
6074 434 12 0.06 3.4173097223103244 5.710028071175312 6.0778244043218566 1 0 -2
1412 101 12 0.06 4.761575451490158 3.3894271743740485 3.4072974292142817 0 2 1
2809 201 9 0.06 11.48885422743312 5.733940049395688 3.666712790564099 -1 1 1
1405 101 5 -0.43 7.082126137680012 1.3411459718804635 2.951230392168153 0 2 1
6076 434 14 0.06 3.317585926723843 4.433661510830229 4.958772164329637 1 0 -2
6066 434 4 0.51 1.471821342468568 4.885019806408751 5.6384869876476085 1 0 -2
1403 101 3 -0.33 5.752347732685377 1.9969335903815744 1.207220489247108 0 2 1
36 3 8 0.06 10.877598409280884 1.6189520439580387 5.639172275669825 0 -1 3
4665 334 3 -0.33 6.543843596460264 7.177941994889445 5.150437662541905 0 2 4
1414 101 14 0.06 6.238944942797119 3.319944711850882 4.26627147652678 0 2 1
6084 435 8 0.06 2.4055644939917613 1.7693024029836697 5.667016467864942 1 0 0
838 60 12 0.06 3.8572298103148452 6.387892383946324 1.0805850433386233 0 -1 1
837 60 11 0.03 1.5110035950619465 2.4468783362640716 0.9136062953966597 0 -1 1
3195 229 3 -0.33 11.084894752558794 1.2386768993029873 1.3055289272924266 0 1 1
6083 435 7 0.06 4.076932402234883 1.712169816727695 4.658971627338247 1 0 0
6077 435 1 -0.18 3.4763709444947315 1.4040515919767378 5.558339131517038 1 0 0
839 60 13 0.06 5.419054001854314 5.428959306232484 1.1056945509877667 0 -1 1
3064 219 12 0.06 10.204741895619122 10.166665527245616 3.8667882499684323 -1 1 -1
836 60 10 0.03 0.9552696991739529 3.9033147904633494 1.7822634776727262 0 -1 1
830 60 4 0.51 3.4532223388884433 4.368653983281776 0.9738194331799005 0 -1 1
4666 334 4 0.51 7.201695219616478 6.417063780414884 6.076674074377186 0 2 4
1832 131 12 0.06 0.991309622506551 10.709905871083063 5.727808079670092 0 0 -1
1834 131 14 0.06 1.5317785316476735 9.851123599709009 7.101470113525891 0 0 -1
6086 435 10 0.03 3.8952783841300325 1.1073049746540395 7.637420938792814 1 0 0
1826 131 6 -0.18 1.0638907627685805 10.763642015087358 6.82685844064953 0 0 -1
6216 444 14 0.06 5.860648640808864 9.094942157803906 10.828053179937159 1 1 -2
6087 435 11 0.03 4.206469603421189 2.752151244623758 7.038595434873894 1 0 0
1878 135 2 0.19 4.310606682509274 6.026438609389733 9.219407176418072 0 0 -2
7013 501 13 0.06 9.55633128936202 3.524892868536223 10.52262508811592 0 1 -1
459 33 11 0.03 8.314553430877236 1.463958575915346 10.728598030143052 -1 -1 0
1887 135 11 0.03 4.549110653836255 6.7775214820317276 9.867493209030137 0 0 -2
1879 135 3 -0.33 2.9333854879385006 6.019306542433099 9.221036591752672 0 0 -2
2812 201 12 0.06 10.89435463088818 8.439334650649215 8.773024904066219 -1 1 1
6078 435 2 0.19 4.292297813307919 1.69678290126677 6.833986368132224 1 0 0
2814 201 14 0.06 9.929898294607503 7.268738111163694 7.7942971299719455 -1 1 1
2813 201 13 0.06 11.344879804208551 6.675859183939224 8.519635963853162 -1 1 1
6081 435 5 -0.43 6.594112102876164 3.1441065999064244 7.2145367035774095 1 0 0
6215 444 13 0.06 5.965922785417273 8.764705742962342 9.08572153853272 1 1 -2
6203 444 1 -0.18 9.282348727605099 11.233488531749616 6.910388988019018 1 1 -2
6207 444 5 -0.43 7.182784116639282 11.28145803105332 10.591777213863722 1 1 -2
6071 434 9 0.06 1.4653473851347862 3.205396438466491 9.221016603971668 1 0 -2
6211 444 9 0.06 8.394905261668718 10.795367397296186 6.448357008303123 1 1 -2
1881 135 5 -0.43 2.7508889659005176 8.266212745587229 8.900276824683026 0 0 -2
1877 135 1 -0.18 4.918636687372674 4.68802744650716 9.665740936670668 0 0 -2
1880 135 4 0.51 2.2151853511231607 7.138626529460198 8.925674582870299 0 0 -2
6206 444 4 0.51 7.2341584928622 10.35115365422026 9.777423075841766 1 1 -2
7014 501 14 0.06 8.731059517919784 3.609839797888043 9.004201634493505 0 1 -1
7004 501 4 0.51 10.887755675062092 3.1700644555635984 8.948448687683795 0 1 -1
6069 434 7 0.06 1.1854320835216094 1.7490651379953026 8.338842652256423 1 0 -2
1885 135 9 0.06 4.815734791050004 4.444311820536653 10.713935104644998 0 0 -2
1883 135 7 0.06 5.915461434435054 4.772106470070654 9.676669957970029 0 0 -2
7003 501 3 -0.33 10.860151529718364 1.8527521179729654 9.367528980918621 0 1 -1
1884 135 8 0.06 4.664635319596494 3.897895002268298 8.972757604233971 0 0 -2
2806 201 6 -0.18 10.963036598181 7.624170807257923 8.01572037422934 -1 1 1
458 33 10 0.03 6.916907623920868 2.336672003597859 10.121725118849662 -1 -1 0
6082 435 6 -0.18 7.96053585333834 1.224563361843125 6.500082549283008 1 0 0
7006 501 6 -0.18 9.67231381048814 3.85232721431948 9.564540591641787 0 1 -1
6065 434 3 -0.33 1.5678208234378825 4.152028594343827 6.770256304482577 1 0 -2
4671 334 9 0.06 6.5767188761668605 9.353172473597896 6.8446311339690435 0 2 4
6089 435 13 0.06 8.785456061958183 1.8881712438606693 6.549400432688379 1 0 0
7012 501 12 0.06 9.831554007961737 4.924130993650774 9.518823083852697 0 1 -1
6208 444 6 -0.18 6.5534702956320805 9.000920990243587 9.961884606622423 1 1 -2
6214 444 12 0.06 7.252997979180888 8.146062222505895 10.118764170337284 1 1 -2
1886 135 10 0.03 4.655448899937792 6.2508475508173635 8.20251635615375 0 0 -2
6617 473 9 0.06 9.668718347769326 11.253081143533368 11.417957699782615 1 -1 -1
4673 334 11 0.03 4.868771325513097 7.542156000874757 6.447809195030588 0 2 4
6080 435 4 0.51 6.624738984575238 2.001174046569301 6.69023043208153 1 0 0
6619 473 11 0.03 11.553787613181385 9.719724040974295 11.156035373709383 1 -1 -1
4667 334 5 -0.43 6.963674276249574 6.495317330996281 7.322557804822994 0 2 4
6391 457 7 0.06 2.1362968070009014 1.966764868206535 11.400117281201116 0 -3 1
6205 444 3 -0.33 8.081090071214682 10.28981689432013 8.742128766015462 1 1 -2
6209 444 7 0.06 10.126238966668978 10.462757891779322 6.933337020894694 1 1 -2
4676 334 14 0.06 9.10880697232573 5.514294218230774 6.324206083954917 0 2 4
6621 473 13 0.06 8.956745475806985 6.470637637530499 11.129666157077862 1 -1 -1
6392 457 8 0.06 3.8821335147353455 2.226179556854963 11.618026920727468 0 -3 1
450 33 2 0.19 7.234620086167099 1.5135007600163939 10.784005558122997 -1 -1 0
4669 334 7 0.06 4.959008409569205 9.941794310345731 6.3852667286980775 0 2 4
6079 435 3 -0.33 5.580326353879698 1.2037920229546197 6.6503305348264 1 0 0
6204 444 2 0.19 8.812305012070986 11.431420255778102 8.400361480812968 1 1 -2
6213 444 11 0.03 9.759737902790805 11.5884838986421 9.07099345555919 1 1 -2
2962 212 8 0.06 10.824027831578528 1.2662276921930524 14.345231761507328 1 -1 1
5522 395 6 -0.18 3.336542349119326 8.774519385023993 17.06090978726425 0 1 -1
5349 383 1 -0.18 1.1859209943308793 6.268000939906027 15.678079906257882 1 2 0
2955 212 1 -0.18 10.002157376512622 1.1534491332520507 13.580681532485078 1 -1 1
783 56 13 0.06 7.899007629135867 1.2286132973791133 16.729006825126135 0 0 -1
585 42 11 0.03 7.824251835866668 8.949410977504845 14.58877006919327 -3 0 1
5357 383 9 0.06 1.6996125181293267 6.012912351239774 14.749860214347294 1 2 0
5520 395 4 0.51 2.771072996905419 9.86436886101937 16.163631005371094 0 1 -1
578 42 4 0.51 5.695381268229072 7.1310275276942905 14.225540258996695 -3 0 1
5527 395 11 0.03 2.8316394506037397 11.364520987467886 14.044903130524837 0 1 -1
451 33 3 -0.33 6.861659435012649 1.852492167096023 12.052534923268649 -1 -1 0
2961 212 7 0.06 10.360380571463455 1.6529260668546946 12.647727929083837 1 -1 1
6393 457 9 0.06 2.7527397981208575 2.9557688888830356 12.716338816478046 0 -3 1
579 42 5 -0.43 6.231637995971246 6.47603923275589 15.177933040663012 -3 0 1
575 42 1 -0.18 6.523328271301878 10.585390083517973 14.10261252364026 -3 0 1
5517 395 1 -0.18 2.80114714433993 9.800935247591825 12.594530936615492 0 1 -1
5521 395 5 -0.43 1.9670982403607558 10.747340251268035 16.56142092242554 0 1 -1
584 42 10 0.03 6.517139188899656 9.1501262613225 15.644477646444457 -3 0 1
452 33 4 0.51 6.930680138831644 3.1138425617502783 12.568816147531425 -1 -1 0
6612 473 4 0.51 10.600647388227818 7.227428464615196 12.059534347385602 1 -1 -1
728 52 14 0.06 9.792217280801616 4.369439095665008 14.84576244341966 0 -1 0
5524 395 8 0.06 3.8807647112107415 9.784874296042139 12.450761030089994 0 1 -1
580 42 6 -0.18 4.656812774527872 6.460895872562396 13.372935280375797 -3 0 1
720 52 6 -0.18 9.969612708875985 5.095992241866802 15.634539357791601 0 -1 0
1452 104 10 0.03 2.8678989828331876 2.6679630497841575 16.181877382790116 0 -1 2
5528 395 12 0.06 3.82005243381802 8.000073989839866 16.476402608754483 0 1 -1
6622 473 14 0.06 9.028466605765784 6.326716030341469 13.082437782691725 1 -1 -1
453 33 5 -0.43 7.058846204853459 4.143932289553943 11.973527641166966 -1 -1 0
6614 473 6 -0.18 9.559389791803687 6.203709261976053 12.072639247906904 1 -1 -1
727 52 13 0.06 9.21204887222206 4.958743256409815 16.384383965002492 0 -1 0
6616 473 8 0.06 9.854594690773203 11.158956157012316 13.212167387724621 1 -1 -1
588 42 14 0.06 4.537045092961829 5.502689738177637 13.757726099420072 -3 0 1
6385 457 1 -0.18 2.931620863474593 2.0770694766369413 12.158556211082912 0 -3 1
1534 110 8 0.06 9.465774063856639 8.091273885768304 16.346815094896492 0 1 1
2963 212 9 0.06 9.264644097027446 1.73929302126089 14.073921787216758 1 -1 1
5519 395 3 -0.33 2.9348702367069275 9.554792586083744 14.898367648124596 0 1 -1
576 42 2 0.19 6.798352589642723 9.191988466874921 14.604417435517549 -3 0 1
577 42 3 -0.33 5.989857352374046 8.364706989208583 13.896836694791489 -3 0 1
5355 383 7 0.06 1.5424876028926064 5.557493529050264 16.450223621027323 1 2 0
460 33 12 0.06 7.009894949187645 4.201570720672861 14.561823599590289 -1 -1 0
454 33 6 -0.18 6.6120790545595804 3.2285113339374707 14.085850677750424 -1 -1 0
5185 371 5 -0.43 11.083040080588944 10.68854548492649 15.301332803136136 1 0 -1
5518 395 2 0.19 2.3770298485328656 10.37439417840475 13.913887849807905 0 1 -1
5523 395 7 0.06 2.29719568229806 8.843491164667393 12.29905560225415 0 1 -1
461 33 13 0.06 7.130402892569779 2.2905444679559346 14.547448245315284 -1 -1 0
6611 473 3 -0.33 10.12990932200536 8.536325288936567 12.23389248383327 1 -1 -1
587 42 13 0.06 3.6572854701284427 6.937211339742036 13.357894444566 -3 0 1
462 33 14 0.06 5.574037569971045 3.1868283087792575 14.389309009694415 -1 -1 0
726 52 12 0.06 9.845486900012768 6.158034376036118 15.322394323295208 0 -1 0
581 42 7 0.06 5.4856274453408975 10.833370576694827 14.301003991326235 -3 0 1
586 42 12 0.06 4.913194622805962 6.460825362417371 12.306828501150537 -3 0 1
6609 473 1 -0.18 10.339672435522179 11.012166367341665 12.250734676535213 1 -1 -1
583 42 9 0.06 7.186387150600985 11.430389081284082 14.429349719863154 -3 0 1
6620 473 12 0.06 10.108127190076866 5.2771787736054305 12.092077411357648 1 -1 -1
6610 473 2 0.19 11.012399299652797 9.634187475251341 12.109233612380727 1 -1 -1
718 52 4 0.51 11.44875833495223 5.114804147203549 16.059061192470573 0 -1 0
5526 395 10 0.03 1.309225204038937 10.32734912980763 14.079835327554397 0 1 -1
5356 383 8 0.06 1.597617677938724 7.240137507950121 15.90725349218884 1 2 0
582 42 8 0.06 6.675965683830909 10.60752819856541 13.070146716459396 -3 0 1
5525 395 9 0.06 2.5669602952285215 10.508820049182397 11.800020627837695 0 1 -1
1537 110 11 0.03 9.557517226410592 10.36688844648793 16.992379540543826 0 1 1
234 17 10 0.03 6.6620707180130445 6.17994537541168 21.301909838437798 0 0 1
1530 110 4 0.51 10.743489352184913 10.559226551039112 19.420100630348283 0 1 1
1451 104 9 0.06 4.676338099004875 2.792434317135119 17.9669935797516 0 -1 2
235 17 11 0.03 6.180898857211093 4.55434391377154 21.86460610639134 0 0 1
778 56 8 0.06 10.737774877609152 2.150948042099676 20.720152030261573 0 0 -1
236 17 12 0.06 4.349241632133016 4.914421087805003 17.699633453415604 0 0 1
231 17 7 0.06 7.779709305088143 3.353065388721764 20.44119452572173 0 0 1
771 56 1 -0.18 11.282215679632815 2.4979248561407856 19.8286770552873 0 0 -1
227 17 3 -0.33 5.5695347797604855 4.987650594637694 19.9585903369308 0 0 1
225 17 1 -0.18 7.855821299753472 4.429357260915211 20.61754774004588 0 0 1
1074 77 10 0.03 4.112738337446562 11.422949033233223 20.150456038404155 1 0 0
1535 110 9 0.06 9.03248014819039 7.404841337049404 17.876890529956974 0 1 1
1443 104 1 -0.18 4.011844887071293 1.9626501514354362 17.903418325713023 0 -1 2
776 56 6 -0.18 7.657225765966013 1.175852606976712 17.81624099089321 0 0 -1
1540 110 14 0.06 10.482030548095604 11.081240322761946 21.486966208796147 0 1 1
5529 395 13 0.06 2.438023089947017 8.29894793969959 17.48933868818034 0 1 -1
226 17 2 0.19 6.563416080564566 5.135077902347362 21.032691995346518 0 0 1
233 17 9 0.06 8.298231895556594 4.872575616145122 19.72115118674756 0 0 1
2828 202 14 0.06 1.4355977936693243 2.3626170860939424 20.430554876493062 4 1 1
1071 77 7 0.06 4.269693735453477 9.991633495566244 22.29140165472285 1 0 0
1073 77 9 0.06 6.080538197360548 9.884374200856321 22.037694481657752 1 0 0
2822 202 8 0.06 5.510747366370409 2.2708191890861205 20.485442802662348 4 1 1
779 56 9 0.06 10.926100599634118 3.497172602602098 19.447054350452003 0 0 -1
1621 116 11 0.03 9.97595653443431 7.671115351736358 21.60909948191389 0 0 4
5697 407 13 0.06 2.425880699090138 7.918140841360013 20.070846012676803 -1 0 1
229 17 5 -0.43 5.441167341274208 7.188016065815216 19.536677631288775 0 0 1
1531 110 5 -0.43 11.353900542129983 11.102330103911061 18.512162727079797 0 1 1
1450 104 8 0.06 3.7004423464793215 1.6512319467099454 19.017218150270512 0 -1 2
230 17 6 -0.18 3.9427976350665603 5.539008195881028 18.504440030590626 0 0 1
5696 407 12 0.06 1.246296503425245 7.0808398155191625 21.053026947943405 -1 0 1
1529 110 3 -0.33 9.582151177758547 9.862227488416908 19.172407113210763 0 1 1
1066 77 2 0.19 5.010264470331402 10.735408591099926 20.395744249777056 1 0 0
2826 202 12 0.06 1.0017807343280167 3.782817920519998 21.265908035435725 4 1 1
228 17 4 0.51 5.131048666758274 6.0183810950168874 19.334582755671534 0 0 1
232 17 8 0.06 8.52081615333431 4.439563811878237 21.42540127501582 0 0 1
1527 110 1 -0.18 9.604556587181849 8.166035026447943 17.42161404245981 0 1 1
1536 110 10 0.03 8.157602422991102 9.56364985250748 17.73287616151292 0 1 1
238 17 14 0.06 3.3342597105596767 4.795403448976677 19.028361966629447 0 0 1
1528 110 2 0.19 9.216112613397732 9.60199215243103 17.77908648941958 0 1 1
2821 202 7 0.06 6.7661940843856385 1.33853921694007 21.582965574391597 4 1 1
784 56 14 0.06 7.418839856378298 2.1924581013184907 18.153040565397486 0 0 -1
772 56 2 0.19 11.242499088894743 1.394692094077002 18.754896814533353 0 0 -1
1532 110 6 -0.18 11.197484195426354 10.506214238898275 20.869908148119862 0 1 1
1618 116 8 0.06 7.714456291712387 7.619834654043327 21.732263033682056 0 0 4
5690 407 6 -0.18 1.3945123847149692 7.688398615614969 20.13490146935408 -1 0 1
773 56 3 -0.33 10.031465852082041 1.414205052544371 18.002056031545283 0 0 -1
2815 202 1 -0.18 5.6738803852718975 1.4531306265032777 21.21347088982745 4 1 1
1065 77 1 -0.18 5.152754151459074 10.45448668741045 21.84793011258339 1 0 0
1539 110 13 0.06 11.286514937939636 9.473915835498655 21.136355540645443 0 1 1
1075 77 11 0.03 4.838178035885253 9.86747748573342 19.813588791988145 1 0 0
1453 104 11 0.03 2.2648187213683055 3.2980410129177677 17.609086834466048 0 -1 2
1619 116 9 0.06 8.186661592931227 9.259918966726737 22.012339908261094 0 0 4
5698 407 14 0.06 1.0349174166654165 7.163645662483482 19.26742806690172 -1 0 1
5687 407 3 -0.33 1.027781759835247 9.971778832360455 19.401739546932582 -1 0 1
237 17 13 0.06 3.3084649417459397 6.32988130444993 18.128481491889417 0 0 1
1067 77 3 -0.33 6.138499742083376 11.537416702522338 19.955017555163636 1 0 0
2818 202 4 0.51 2.838321689191322 3.026770387119721 21.971113270786105 4 1 1
1611 116 1 -0.18 8.186371749990059 8.27519063002213 22.44362872804471 0 0 4
1449 104 7 0.06 4.4201821429206944 1.0826630892700722 17.404065817882252 0 -1 2
2820 202 6 -0.18 1.4302297402772584 2.782731798842498 21.464341801112678 4 1 1
2817 202 3 -0.33 3.47583676688954 1.8536834644273907 21.963652063384426 4 1 1
1444 104 2 0.19 2.724075322332359 2.364839283230039 17.247423985131185 0 -1 2
2816 202 2 0.19 4.759685670216468 1.7623357610664396 22.389329704727906 4 1 1
5530 395 14 0.06 4.023877457007359 9.224220439509237 17.78385312714028 0 1 -1
2819 202 5 -0.43 3.256314797746049 4.099426986395478 22.37277953910568 4 1 1
1533 110 7 0.06 10.570188362200689 7.865174351699102 17.619943121158897 0 1 1
1445 104 3 -0.33 1.7701538297375268 1.3842688372756609 17.32146904724372 0 -1 2
1072 77 8 0.06 5.35256523644694 11.445507193292642 22.332761720675713 1 0 0
2827 202 13 0.06 0.8284964217515645 2.225253094270024 22.21247606132657 4 1 1
1232 88 14 0.06 3.318674976999917 1.1289132252384793 27.139570233276647 1 2 3
1612 116 2 0.19 9.591299087689773 7.760498236367198 22.657207441390618 0 0 4
3388 242 14 0.06 5.729163739470355 4.768580305255032 26.871726146529568 1 2 -3
470 34 8 0.06 11.54696949638547 1.3037384330649777 27.374535139838848 0 -1 -1
3376 242 2 0.19 4.460102037291437 7.050566606396118 23.70422338635596 1 2 -3
1622 116 12 0.06 9.369188824635795 4.362196893888719 24.13045786636207 0 0 4
325 24 3 -0.33 1.8229702989582373 11.60430112055142 25.19333513708266 -1 0 1
1623 116 13 0.06 9.861012435013297 4.977740529109874 25.680773876887045 0 0 4
3380 242 6 -0.18 6.445311106673262 5.5389902016931645 26.40701868847308 1 2 -3
2824 202 10 0.03 5.214432575265919 2.538943588026779 22.95964701425245 4 1 1
336 24 14 0.06 3.687951004607047 10.39729986352401 27.466708507387835 -1 0 1
4231 303 3 -0.33 11.171137531379651 9.281666292598441 27.536472195779844 0 -1 1
3385 242 11 0.03 4.666738854815787 6.387705107626674 22.865239693490317 1 2 -3
1230 88 12 0.06 4.37053080725697 2.092035516738057 26.032424901729883 1 2 3
1259 90 13 0.06 1.8314234975850932 3.7300281928551975 27.063691666467715 0 -1 0
1624 116 14 0.06 11.003408153240864 4.067011715342183 24.76774991325326 0 0 4
3382 242 8 0.06 2.9034359027698216 8.098675238665196 24.610080845313 1 2 -3
334 24 12 0.06 2.064128712816782 11.194181432155137 27.499402315948643 -1 0 1
328 24 6 -0.18 3.1272472358098593 11.234475176026418 27.113071878561012 -1 0 1
3377 242 3 -0.33 4.8588608039809325 6.4942773686143545 24.99439877490432 1 2 -3
1260 90 14 0.06 3.309067826733569 4.7364329046425215 26.813995877710482 0 -1 0
1117 80 11 0.03 8.23854121681993 1.9013241028501182 25.732632369909204 4 0 -1
1617 116 7 0.06 7.6250902187155605 8.275871711877187 23.368180961327976 0 0 4
4242 303 14 0.06 8.350239221133359 7.803494789852992 26.59494477118648 0 -1 1
1620 116 10 0.03 10.134737713149818 8.590735182719921 23.11896662158027 0 0 4
1224 88 6 -0.18 4.282769560676861 1.16948427094703 26.570857216883702 1 2 3
4234 303 6 -0.18 9.211232449812522 7.9732291481763875 27.2802846073648 0 -1 1
3387 242 13 0.06 7.483300880465703 5.222678478122526 26.27426069226306 1 2 -3
3375 242 1 -0.18 2.9958855473291037 7.424688214997377 23.718965360974504 1 2 -3
1616 116 6 -0.18 10.218554063196825 4.818202663777776 24.67140314689476 0 0 4
1113 80 7 0.06 10.52934185291631 1.11567533074552 24.78768046818584 4 0 -1
1258 90 12 0.06 2.0056872972316064 4.620667259373201 25.464728261007824 0 -1 0
4239 303 11 0.03 11.07223449925536 11.255057169558196 27.189151753191133 0 -1 1
6420 459 8 0.06 6.917511209730046 11.141322470921642 24.85924061531661 1 -1 2
1250 90 4 0.51 1.4899070992076136 5.852922981342033 26.912622096455223 0 -1 0
1257 90 11 0.03 0.8688657482484738 8.258658152648385 27.60223821766604 0 -1 0
3379 242 5 -0.43 6.646382336893827 5.433704321749575 24.025306416364923 1 2 -3
3386 242 12 0.06 6.428315373677721 6.531741941607412 26.917686674323143 1 2 -3
333 24 11 0.03 1.9156455343016876 11.006843594883286 23.246504238869576 -1 0 1
4241 303 13 0.06 9.861079609441353 7.117226629040982 27.47955604139558 0 -1 1
1252 90 6 -0.18 2.236610862122334 4.59027744782559 26.554773895140265 0 -1 0
3383 242 9 0.06 2.396244020451062 6.550680769704396 23.911334745723867 1 2 -3
1614 116 4 0.51 10.516891219466533 6.141774912605704 24.038288412332328 0 0 4
2825 202 11 0.03 4.75945170709019 0.8783794768889732 23.091484998078958 4 1 1
3378 242 4 0.51 6.034687016249196 5.805668204012493 25.0304327637777 1 2 -3
3384 242 10 0.03 5.122629975127935 7.902363560355503 23.528878112185513 1 2 -3
1613 116 3 -0.33 9.435371880097414 6.645154444786578 23.47849627677135 0 0 4
1231 88 13 0.06 5.125681255404022 1.0989078189443853 27.230608151719405 1 2 3
1114 80 8 0.06 9.217671313030744 1.3683496740966272 23.616159514501767 4 0 -1
1108 80 2 0.19 8.410817897556573 0.8792659872258786 25.504410727688523 4 0 -1
326 24 4 0.51 3.115153489089091 11.43334760818284 25.61944207478248 -1 0 1
4233 303 5 -0.43 9.869474731042681 9.742881005222557 25.74606375651631 0 -1 1
4232 303 4 0.51 10.120199963911578 9.050692751581154 26.70852938461612 0 -1 1
1615 116 5 -0.43 11.581460848112895 6.783204601648801 24.196685639629955 0 0 4
327 24 5 -0.43 4.126317758053471 11.474724819895307 24.947873396199906 -1 0 1
3381 242 7 0.06 2.6494362100432327 7.98218305454041 22.864564665647123 1 2 -3
1249 90 3 -0.33 2.022507943848713 6.51958271880914 27.880189809542042 0 -1 0
1256 90 10 0.03 2.1202239161060086 8.31715081564895 28.899730188038394 0 -1 0
646 47 2 0.19 6.017103742992829 1.936271377807207 32.78942615241836 1 1 -1
3783 271 3 -0.33 10.022035081914405 5.024865507183855 29.20399062968843 1 0 0
3786 271 6 -0.18 7.7468248375095445 4.401404013592163 29.076732667655115 1 0 0
3694 264 12 0.06 9.573219867372522 8.917301488967803 30.432421741449442 1 0 1
6846 489 14 0.06 6.1512355325449315 8.7594706303069 30.54936553719204 1 0 0
6836 489 4 0.51 5.18358863468253 6.815412273733713 30.443704127146606 1 0 0
3784 271 4 0.51 9.167198372646155 4.087279271161398 29.522687043688244 1 0 0
6840 489 8 0.06 1.8263169752224697 7.068987797684804 33.2524548255477 1 0 0
1248 90 2 0.19 1.4303996911145855 7.678432636624249 28.395227735303635 0 -1 0
3687 264 5 -0.43 11.60525203214935 7.707478598323036 32.65905721586087 1 0 1
652 47 8 0.06 7.764518774932692 1.9077816767778069 31.57067532379746 1 1 -1
3785 271 5 -0.43 9.473361566007016 3.098639250991369 30.23454620656722 1 0 0
658 47 14 0.06 2.943830279793387 1.973390205614467 29.359825221761948 1 1 -1
3692 264 10 0.03 10.256107588024225 5.160419309474074 32.78849242845836 1 0 1
648 47 4 0.51 4.558343579749856 1.7033687406099327 30.838873472636095 1 1 -1
555 40 9 0.06 1.1376577092320552 1.2438432552057777 32.450112267316086 1 1 2
3695 264 13 0.06 10.910339653438214 8.012810987971815 29.844238364543045 1 0 1
3782 271 2 0.19 11.330865209062885 5.056092952639561 29.70108864129655 1 0 0
3684 264 2 0.19 9.489189432315046 5.959989708268471 32.96427901993974 1 0 1
3793 271 13 0.06 7.621554427357138 5.468404481124096 28.86708985129623 1 0 0
1718 123 10 0.03 7.052045206377744 9.645781683911828 32.30503714541288 1 3 0
6843 489 11 0.03 4.12155544956644 5.858703978606794 33.040074818349936 1 0 0
3685 264 3 -0.33 9.522427655906977 7.043359074097424 32.05057476015741 1 0 1
650 47 6 -0.18 3.809774497343328 2.476138085097072 29.765229568832748 1 1 -1
6842 489 10 0.03 3.1506713897069623 5.853394998695481 31.549238126014064 1 0 0
6837 489 5 -0.43 4.785607220957589 5.899913971089485 29.714131044729246 1 0 0
6834 489 2 0.19 3.6922458084788037 6.5335822255579865 32.2214738952847 1 0 0
6844 489 12 0.06 5.86148287548288 8.14364539644588 28.909046849557903 1 0 0
547 40 1 -0.18 0.9853369439263018 2.302912049436368 32.279690803991194 1 1 2
3688 264 6 -0.18 10.579638079995798 8.61953162325112 30.67003430150135 1 0 1
6845 489 13 0.06 7.1519810466210725 7.436737641962688 29.89936058387423 1 0 0
3689 264 7 0.06 7.7057440354781646 5.487632665488016 31.855017847032737 1 0 1
6835 489 3 -0.33 4.790903286099967 7.176922995958981 31.632049321716774 1 0 0
3792 271 12 0.06 7.6642839235032385 3.87230476568545 28.13210902877525 1 0 0
6838 489 6 -0.18 6.1408574533653955 7.863708437652863 29.921139697198363 1 0 0
6833 489 1 -0.18 2.67121769439996 7.550257461021682 32.66704288718363 1 0 0
657 47 13 0.06 3.519747425439802 3.424216060137458 30.20457060380891 1 1 -1
3794 271 14 0.06 7.002407795946161 4.020200672093697 29.74372713698423 1 0 0
3686 264 4 0.51 10.608906420376295 7.761769845887379 31.95293395439279 1 0 1
656 47 12 0.06 4.45974450592144 2.6215745080188375 28.89339762934966 1 1 -1
4240 303 12 0.06 8.814322468902073 8.15634889765607 28.24817085375903 0 -1 1
647 47 3 -0.33 5.262465772077553 2.5125686664864677 31.698476512321207 1 1 -1
6841 489 9 0.06 2.2515763930095085 7.943145104089084 31.739171263480493 1 0 0
554 40 8 0.06 1.410298224815587 2.589893908566732 31.29773219479279 1 1 2
3683 264 1 -0.18 8.102893375995329 5.458896738349005 32.921252454189315 1 0 1
3696 264 14 0.06 11.152197781497065 9.517666543304081 30.87842062809116 1 0 1
3791 271 11 0.03 11.3531327633511 4.810872267611961 30.72942810673951 1 0 0
553 40 7 0.06 1.4743980785712991 2.8358223519620007 33.0639927013583 1 1 2
645 47 1 -0.18 7.2972472172814875 1.2180261484122996 32.26144814115931 1 1 -1
1715 123 7 0.06 5.491035865676256 11.238269310312484 33.25669937778528 1 3 0
6459 462 5 -0.43 8.4499039995129 11.422714626742497 29.584277351831386 0 -2 0
1111 80 5 -0.43 7.406460716668657 1.191198399629789 28.04249592776524 4 0 -1
3691 264 9 0.06 8.132578522064652 4.457152866958684 33.335057571843905 1 0 1
975 70 9 0.06 10.817080212192455 1.5015216406612542 32.32041205547675 -1 0 2
974 70 8 0.06 10.932624346927614 1.1389420048520995 30.68351156733488 -1 0 2
1710 123 2 0.19 6.970847242716485 9.665971671254361 33.31292298923165 1 3 0