LAMMPS data file via write_data, version 29 Aug 2024, timestep = 1000000, units = real

5488 atoms
16 atom types
5145 bonds
15 bond types
9261 angles
27 angle types
11319 dihedrals
33 dihedral types
3087 impropers
9 improper types

1.8434081174650956 41.246591882516185 xlo xhi
1.8434081174650956 41.246591882516185 ylo yhi
1.8434081174650956 41.246591882516185 zlo zhi

Masses

1 12.011
2 12.011
3 12.011
4 12.011
5 12.011
6 15.999
7 1.008
8 1.008
9 1.008
10 1.008
11 1.008
12 1.008
13 1.008
14 1.008
15 1.008
16 1.008

Pair Coeffs # lj/cut/coul/long

1 0.066 3.5
2 0.066 3.5
3 0.066 3.5
4 0.066 3.5
5 0.105 3.75
6 0.21 2.96
7 0.03 2.5
8 0.03 2.5
9 0.03 2.5
10 0.03 2.5
11 0.03 2.5
12 0.03 2.5
13 0.03 2.5
14 0.015 2.42
15 0.015 2.42
16 0.015 2.42

Bond Coeffs # harmonic

1 268 1.529
2 268 1.529
3 268 1.529
4 317 1.522
5 570 1.229
6 340 1.09
7 340 1.09
8 340 1.09
9 340 1.09
10 340 1.09
11 340 1.09
12 340 1.09
13 340 1.09
14 340 1.09
15 340 1.09

Angle Coeffs # harmonic

1 58.35 112.7
2 58.35 112.7
3 63 111.1
4 80 120.4
5 37.5 110.7
6 37.5 110.7
7 37.5 110.7
8 37.5 110.7
9 37.5 110.7
10 37.5 110.7
11 37.5 110.7
12 37.5 110.7
13 37.5 110.7
14 35 115
15 35 109.5
16 33 107.8
17 33 107.8
18 37.5 110.7
19 33 107.8
20 35 109.5
21 33 107.8
22 35 123
23 33 107.8
24 37.5 110.7
25 33 107.8
26 37.5 110.7
27 37.5 110.7

Dihedral Coeffs # opls

1 1.3 -0.05 0.2 0
2 -1.697 -0.456 0.585 0
3 -0.277 1.228 -0.694 0
4 0 0 0.3 0
5 0 0 0.3 0
6 0 0 0.3 0
7 0 0 0.3 0
8 0 0 0.3 0
9 0 0 0.36 0
10 0 0 0.3 0
11 0 0 0.3 0
12 0 0 0.3 0
13 0 0 0.3 0
14 0 0 0.36 0
15 0 0 0.3 0
16 0 0 -0.076 0
17 0 0 -0.076 0
18 0 0 0.3 0
19 0 0 0.3 0
20 0 0 0.3 0
21 0 0 0.3 0
22 0 0 0.3 0
23 0 0 0.3 0
24 0 0 0 0
25 0 0 0.3 0
26 0 0 0.3 0
27 0 0 0.3 0
28 0 0 0.3 0
29 0 0 0.3 0
30 0 0 0 0
31 0 0 0.3 0
32 0 0 0.3 0
33 0 0 0 0

Improper Coeffs # cvff

1 0 -1 2
2 0 -1 2
3 0 -1 2
4 0 -1 2
5 0 -1 2
6 0 -1 2
7 0 -1 2
8 0 -1 2
9 10.5 -1 2

Atoms # full

1568 98 16 0 3.103434666355684 5.4155065097547705 7.560265030899513 -1 1 1
1555 98 3 -0.12 5.60430701656328 7.7280440954710725 8.24593662466263 -1 1 1
1565 98 13 0.06 5.797206109168595 7.870018027113002 7.172610462450498 -1 1 1
1556 98 4 -0.12 4.785890465505943 6.412385400421466 8.361291729294798 -1 1 1
1557 98 5 0.45 3.774635409248627 6.15848196951356 7.224879320291075 -1 1 1
4045 253 13 0.06 7.653187483957947 8.178777787763858 3.9773995969802574 -1 1 0
1558 98 6 -0.45 3.6878673117144967 6.7512338573502975 6.137095325004923 -1 1 1
2436 153 4 -0.12 9.786116211270546 6.194835861691983 8.116357217302152 4 0 3
4035 253 3 -0.12 6.8158258354395995 7.519611265934941 4.130514459175197 -1 1 0
4034 253 2 -0.12 5.974375353212843 7.115820346126166 2.8633889593905852 -1 1 0
2032 127 16 0 3.741258982280473 3.74067121759637 11.350143823606 2 -2 0
4047 253 15 0.06 7.62484640621602 6.628246885776357 5.983382342834803 -1 1 0
4037 253 5 0.45 8.19499237728279 5.37376695880793 4.380621721022431 -1 1 0
4036 253 4 -0.12 7.209752042860668 6.351095358395741 5.010247085145844 -1 1 0
2446 153 14 0.06 9.091923114315684 5.603644393928748 7.644281142195472 4 0 3
2434 153 2 -0.12 9.613377865913568 4.822770430406695 10.165156352674025 4 0 3
4033 253 1 -0.18 4.957291453891471 8.210544239517482 2.635578135802093 -1 1 0
4038 253 6 -0.45 9.098333429627587 4.899201895180897 5.050889747633278 -1 1 0
2435 153 3 -0.12 9.59743173496234 6.244233586942357 9.620377968805784 4 0 3
2442 153 10 0.06 8.853285865491973 4.228407175809718 9.74202903303685 4 0 3
1564 98 12 0.06 6.585607313806629 7.634286851087482 8.731733505404577 -1 1 1
2445 153 13 0.06 8.68068622427395 6.735010157665294 9.881785345718372 4 0 3
1567 98 15 0.06 5.5523222694459715 5.536833085786906 8.350417259221317 -1 1 1
2022 127 6 -0.45 2.650922442887675 4.4715943618616105 9.699495896503697 2 -2 0
4046 253 14 0.06 6.345049258759118 5.654533639047738 5.207812201222183 -1 1 0
1566 98 14 0.06 4.32866982252091 6.371631526058888 9.27929956740969 -1 1 1
4048 253 16 0 8.151909546162607 5.255775364057984 3.3171840346459973 -1 1 0
4081 256 1 -0.18 11.084792557282015 2.372771607591991 7.355153806113593 -2 -1 1
2437 153 5 0.45 9.782891430719681 7.564906903081881 7.49879203423851 4 0 3
2444 153 12 0.06 10.391619309526906 6.804102315596932 10.08314741205626 4 0 3
3560 223 8 0.06 8.687481437778654 2.276319039760147 3.4951950362076527 1 2 1
4042 253 10 0.06 6.721699520541902 7.032058462663148 2.0258967587777934 -1 1 0
4044 253 12 0.06 6.119950717952892 8.132304445910941 4.727641424983738 -1 1 0
3565 223 13 0.06 10.93435543800725 3.7091778623437865 3.3732677019864163 1 2 1
2443 153 11 0.06 10.511646881615537 4.299487056366916 9.90576490885147 4 0 3
2021 127 5 0.45 2.829741335045974 4.051988789861117 10.77820182856967 2 -2 0
3581 224 13 0.06 4.142519149128381 14.693536457520315 7.600049017776681 0 -2 2
4040 253 8 0.06 5.4974935367697295 9.180698428414818 2.461379108309501 -1 1 0
4637 290 13 0.06 2.3835083127938823 6.722402947644474 3.681138285973204 -1 0 2
5482 343 10 0.06 11.088471716825554 11.981921455079478 9.034613335452491 -1 -1 1
3887 243 15 0.06 7.690748862648677 11.014399476040218 2.5171592179998434 0 1 -1
3555 223 3 -0.12 11.382999781389012 2.7088425188325354 3.165754164274502 1 2 1
3559 223 7 0.06 8.74823823238619 3.08144443367894 1.8579164859372566 1 2 1
3564 223 12 0.06 11.448153993636328 2.2891053081972896 4.1341207795938475 1 2 1
5305 332 9 0.06 3.3545548161012055 8.9366520671321 11.491866236006729 0 1 0
1518 95 14 0.06 2.845325035972577 12.333884808855743 10.826791308533265 0 -1 0
2447 153 15 0.06 10.678321960204386 5.7293812219476425 7.91928688785571 4 0 3
3553 223 1 -0.18 8.889481551624364 2.1014809318437333 2.4460438394516766 1 2 1
3580 224 12 0.06 4.2800510122794835 14.786719698153046 9.238994748843083 0 -2 2
3876 243 4 -0.12 8.779594971531438 11.23021010403584 2.5371770002954896 0 1 -1
4088 256 8 0.06 10.733584523815791 3.292075690260209 6.877096562887003 -2 -1 1
4089 256 9 0.06 10.431700463344248 2.3507357707049197 8.224349100039117 -2 -1 1
4043 253 11 0.06 5.399244680140428 6.202997030248511 2.918853829883504 -1 1 0
2294 144 6 -0.45 2.948088559252839 2.157998182760284 6.322781381230212 -3 3 -3
1554 98 2 -0.12 4.801472640462007 8.942959242624486 8.582451126996862 -1 1 1
1562 98 10 0.06 3.9178673130374 9.008027913002078 7.877545295015791 -1 1 1
3881 243 9 0.06 7.557261894341205 13.984664573029098 5.522884214069597 0 1 -1
1563 98 11 0.06 4.427591250509687 8.93233226638626 9.626095890927438 -1 1 1
4041 253 9 0.06 4.315001401693117 8.401384883467294 3.4272165318838628 -1 1 0
2438 153 6 -0.45 9.51613064320288 8.540143677372859 8.191719521826379 4 0 3
1508 95 4 -0.12 1.9744564324407723 12.322324522383473 11.48592176348552 0 -1 0
1559 98 7 0.06 6.427884273267245 10.444119987490536 8.979183076954456 -1 1 1
5412 339 4 -0.12 4.218698651939611 13.753363709506266 4.807301868000574 2 0 4
2448 153 16 0 9.82414817000017 7.549096742723192 6.438852954373083 4 0 3
3879 243 7 0.06 9.00455513031866 13.29524554893818 6.162482873604912 0 1 -1
3880 243 8 0.06 7.4214514474296625 12.792478479119332 6.703343587594319 0 1 -1
1511 95 7 0.06 2.433759542095938 11.980307425898289 8.62949923338818 0 -1 0
5483 343 11 0.06 11.028283610213352 10.276056569580575 9.422759429252881 -1 -1 1
5417 339 9 0.06 2.3514524031075217 9.992975652837885 6.340864017138186 2 0 4
5414 339 6 -0.45 3.498886838799141 13.331196299518256 2.58004183519062 2 0 4
3569 224 1 -0.18 6.858878195115234 14.28957716800833 9.022094848906395 0 -2 2
5421 339 13 0.06 2.317729429457966 12.91836293531417 5.099409115831711 2 0 4
3575 224 7 0.06 6.5807027443689945 14.220340389793598 10.047618474044283 0 -2 2
3882 243 10 0.06 7.146578194430466 11.627400983561275 4.50353271890096 0 1 -1
3591 225 7 0.06 7.479473688147008 2.638334596555561 11.460623689667518 -2 2 1
3878 243 6 -0.45 10.08101832057878 9.694463335378051 3.8347602930575726 0 1 -1
3873 243 1 -0.18 8.038198186689556 13.062081108022992 5.845024237522651 0 1 -1
5422 339 14 0.06 5.2159447343229175 13.85242863938975 5.151630786099526 2 0 4
1553 98 1 -0.18 5.576958073798378 10.27807545218036 8.349789735585297 -1 1 1
1561 98 9 0.06 5.882582212747619 10.295603532013695 7.344547336988177 -1 1 1
5420 339 12 0.06 3.4535541978052495 12.737644600580088 6.389451103761847 2 0 4
5418 339 10 0.06 3.82217506256719 11.045143092367088 3.9504295579442377 2 0 4
1560 98 8 0.06 4.833232418295812 11.08323271068271 8.485933639814021 -1 1 1
5413 339 5 0.45 4.376036812742933 13.88506329196838 3.3109231113511597 2 0 4
5487 343 15 0.06 11.29901522127552 9.738272281973991 6.81940956371758 -1 -1 1
5410 339 2 -0.12 3.7771391415776536 11.197609818642352 5.057341540858505 2 0 4
3885 243 13 0.06 8.768700373340945 13.266019474853334 3.2546450950318926 0 1 -1
3875 243 3 -0.12 8.977959059727144 12.289014811446696 3.597351313638928 0 1 -1
3576 224 8 0.06 7.969367879736406 14.452345886787286 9.064518662346355 0 -2 2
3883 243 11 0.06 8.516696157966813 11.075310099682682 5.373942312127117 0 1 -1
3884 243 12 0.06 10.064950493075173 12.250739829020628 3.7625754694170377 0 1 -1
4639 290 15 0.06 1.8687341696687714 4.344769372093499 3.6875174834296036 -1 0 2
5423 339 15 0.06 3.6937194772583832 14.64590866505666 5.206465096190663 2 0 4
5415 339 7 0.06 3.121360010869866 9.118579062892909 5.146106357105484 2 0 4
5409 339 1 -0.18 2.785813759564742 10.125862936255619 5.431421298978872 2 0 4
5411 339 3 -0.12 3.36831470281554 12.625234611700979 5.394612563212895 2 0 4
75 5 11 0.06 4.637868930251528 2.810293987965026 2.990750109324004 1 0 -1
5419 339 11 0.06 4.780198814458677 11.013445962468888 5.4901939462886595 2 0 4
3874 243 2 -0.12 8.11901811179671 11.948585232957626 4.85652087868993 0 1 -1
5455 341 15 0.06 7.263029878765979 11.487744380954696 11.64576775524285 3 -1 0
3577 224 9 0.06 6.512238289335112 13.34388698139669 8.600792621951447 0 -2 2
3877 243 5 0.45 9.473154483664917 9.935926612099776 2.7775754626013947 0 1 -1
5424 339 16 0 5.100883110955014 14.578841988065752 2.9724979784821874 2 0 4
4762 298 10 0.06 11.408878554790224 13.962923817063693 6.567452815401266 1 -1 1
5454 341 14 0.06 8.502685945902726 10.447545457053755 10.88225459780627 3 -1 0
5071 317 15 0.06 11.042199517069301 14.595871049321445 10.997526088976791 3 2 -1
66 5 2 -0.12 4.011024817005352 2.3678699207747496 2.243938190698708 1 0 -1
5486 343 14 0.06 11.09586060161921 11.331470955017569 6.662914076493028 -1 -1 1
3888 243 16 0 9.166077042851139 9.167520782269074 2.1503435546077236 0 1 -1
5474 343 2 -0.12 11.681598076184162 11.097595387061434 9.286201009698765 -1 -1 1
2293 144 5 0.45 1.876479774934567 2.8011651896968277 6.436668799996217 -3 3 -3
3554 223 2 -0.12 10.39665358048247 1.8612736009314013 2.334682232400586 1 2 1
74 5 10 0.06 3.395882928970792 3.185955156191987 1.9419028306885706 1 0 -1
76 5 12 0.06 2.60498815839605 1.8457955990647221 3.7691925133400943 1 0 -1
1324 83 12 0.06 3.6546743627945304 4.498888077251722 14.017337603548974 2 0 1
1315 83 3 -0.12 4.309018226003312 5.083753134893652 14.640018492811482 2 0 1
1322 83 10 0.06 6.086118309941443 4.692913651834709 13.63143913504534 2 0 1
1316 83 4 -0.12 4.666226210604158 4.274969720030665 15.873581362502 2 0 1
1314 83 2 -0.12 5.55202539204249 5.59484575484716 13.89602245915049 2 0 1
1313 83 1 -0.18 6.353246624007542 6.669230374547188 14.717082781374744 2 0 1
1319 83 7 0.06 5.725356078357594 7.573308400474471 14.849964208544424 2 0 1
1323 83 11 0.06 5.225590663084098 6.141918626635791 12.964820688596264 2 0 1
1325 83 13 0.06 3.712517382079674 5.970090071722011 14.866674152312957 2 0 1
1327 83 15 0.06 5.145034011470493 3.428569566501782 15.552815316534659 2 0 1
1317 83 5 0.45 3.4084556664684706 3.7761059060261895 16.63611676596371 2 0 1
1326 83 14 0.06 5.368759409995641 4.831605464650822 16.612363829837612 2 0 1
5064 317 8 0.06 8.755391344297495 14.304893126064933 12.055217372496399 3 2 -1
1328 83 16 0 3.6534673179487136 3.08058864354725 17.387468398388002 2 0 1
1655 104 7 0.06 8.82820151783142 3.1489742215275776 16.197396375366658 1 -1 0
4176 261 16 0 7.639806647117673 2.7985820843787472 20.171951108381418 0 -1 -1
4171 261 11 0.06 6.774659179898647 2.65755244650026 18.02436886138256 0 -1 -1
198 13 6 -0.45 6.513807908235749 5.807254003305795 19.730130452950544 0 1 1
4734 296 14 0.06 9.380043114488526 7.221892834810224 19.78441412160888 0 0 -1
1657 104 9 0.06 8.471305664624296 4.721224410390125 15.389476668864637 1 -1 0
5446 341 6 -0.45 6.037616507078053 9.107541101753755 11.916435622924391 3 -1 0
1320 83 8 0.06 7.314898653061066 6.902870844298052 14.251165260462274 2 0 1
4736 296 16 0 9.22911465805641 4.75673486830283 20.417038967787263 0 0 -1
196 13 4 -0.12 4.80191848649773 7.507602013022863 19.57280286204761 0 1 1
1701 107 5 0.45 2.345345865685151 3.2613213490912276 21.0508698403733 1 -3 1
1318 83 6 -0.45 2.3202312232467825 3.771763294616555 16.039710017005234 2 0 1
197 13 5 0.45 5.457871589397049 6.256586409422373 20.22813716141971 0 1 1
2441 153 9 0.06 8.300736238992382 5.116563283878578 11.93711022795939 4 0 3
1650 104 2 -0.12 10.54644938786258 4.084546846741215 15.14106117909732 1 -1 0
208 13 16 0 4.8341204581531185 5.731239510466259 20.964014522928196 0 1 1
4728 296 8 0.06 9.056285592786224 9.821152504527957 17.003510729384544 0 0 -1
1321 83 9 0.06 6.57108353898053 6.237306014415992 15.68334675260821 2 0 1
5310 332 14 0.06 2.278363767976987 9.531722747485805 16.30628179168979 0 1 0
4725 296 5 0.45 9.817299133431657 5.028274461189541 19.50902781757514 0 0 -1
4731 296 11 0.06 8.778749202349747 7.257202054403353 17.270038205511888 0 0 -1
206 13 14 0.06 3.878836759745131 7.237675240512576 19.194818426787435 0 1 1
4727 296 7 0.06 9.068563839604849 9.176669863536828 18.631931820735417 0 0 -1
3585 225 1 -0.18 7.290226866630732 1.9019411707912885 12.222139904393064 -2 2 1
4721 296 1 -0.18 9.605205316708933 9.152072933684291 17.63353648453537 0 0 -1
5449 341 9 0.06 11.492478065996892 11.45074024645685 13.766677991839071 3 -1 0
4165 261 5 0.45 7.023956262278032 2.322740142485512 20.970604185389977 0 -1 -1
2439 153 7 0.06 9.949386970155832 5.776514922937445 12.087858497057779 4 0 3
5337 334 9 0.06 1.9097056548796423 12.854219439948537 20.497647828968248 1 1 1
1651 104 3 -0.12 11.436753313915364 2.9008074006788047 15.305828016038141 1 -1 0
1658 104 10 0.06 10.889375079022624 4.966455984180883 15.798094873200396 1 -1 0
1652 104 4 -0.12 11.443874790863552 1.9378658064659766 14.078963570556175 1 -1 0
881 56 1 -0.18 9.485472255404723 13.25249898480914 17.965637758289397 0 1 0
889 56 9 0.06 9.112019120486767 13.903077434693223 18.75619697904712 0 1 0
1659 104 11 0.06 10.634694573139848 4.471883017678724 14.141340432861194 1 -1 0
891 56 11 0.06 11.37730028225573 12.920030146349568 16.993338780828914 0 1 0
5448 341 8 0.06 10.649940370174539 10.857706534507024 15.270639109935416 3 -1 0
3593 225 9 0.06 6.913937031799909 2.339915965974306 13.159043682233502 -2 2 1
204 13 12 0.06 6.705167658963276 8.439925964118135 18.84138337458966 0 1 1
5062 317 6 -0.45 11.388152718072314 14.649798350272018 14.228388613613038 3 2 -1
205 13 13 0.06 5.678760519355061 7.7778125610314 17.628554440954176 0 1 1
195 13 3 -0.12 5.689905128803522 8.257274178457259 18.56667001873412 0 1 1
2767 173 15 0.06 6.701526844694993 14.479888336262691 16.87765681762896 -1 -1 0
2755 173 3 -0.12 6.402558553243627 14.50609755917314 14.704885138630122 -1 -1 0
5453 341 13 0.06 8.355497115810525 11.191047817224089 13.853266181016915 3 -1 0
4730 296 10 0.06 10.17077329148541 7.65074625469957 16.21886475621919 0 0 -1
5452 341 12 0.06 9.44207785333192 11.894449348625328 12.582207894882924 3 -1 0
5451 341 11 0.06 10.33052429570809 9.603593936429098 12.419988419738624 3 -1 0
1660 104 12 0.06 11.22385550147863 2.3367571553789657 16.256597216594457 1 -1 0
4733 296 13 0.06 11.248232915612887 6.145345175908422 17.572463630277078 0 0 -1
4722 296 2 -0.12 9.824651356441557 7.695244650930777 17.23469265332146 0 0 -1
199 13 7 0.06 6.626757935443715 10.122779446307485 16.75096808697625 0 1 1
1662 104 14 0.06 10.391687543198113 1.8739801406585117 13.691865597776202 1 -1 0
1656 104 8 0.06 8.675841272075179 3.294197711438118 14.445704026393582 1 -1 0
4724 296 4 -0.12 10.199636335461962 6.49002450473595 19.432125594462704 0 0 -1
207 13 15 0.06 4.587200273124845 8.272588236327998 20.35219583045967 0 1 1
5442 341 2 -0.12 9.931150243085288 9.99011463520828 13.34887749763537 3 -1 0
5450 341 10 0.06 9.44116044464496 9.177754730176321 13.99351493816019 3 -1 0
5311 332 15 0.06 2.693077653598218 7.74843304399549 16.43356222582213 0 1 0
202 13 10 0.06 4.282186904532371 9.610429188901715 17.72893173891307 0 1 1
193 13 1 -0.18 6.130872995748805 10.614003337776909 17.606978536429718 0 1 1
194 13 2 -0.12 5.195659020914569 9.705000672447689 18.397560097016836 0 1 1
203 13 11 0.06 4.786699993090773 10.194291186384202 19.314257219827972 0 1 1
5329 334 1 -0.18 2.048696456711206 11.735810437017793 20.29913279969401 1 1 1
200 13 8 0.06 6.891203678870831 11.105770996486703 18.30755283071198 0 1 1
2763 173 11 0.06 4.223530464498736 14.285677169742026 14.289455315386618 -1 -1 0
2760 173 8 0.06 5.273363709438518 13.615700133023312 12.202851216957477 -1 -1 0
2754 173 2 -0.12 5.1474193917697795 13.630112405384605 14.395087476211053 -1 -1 0
201 13 9 0.06 5.531331892107879 11.380807631369311 17.11429894093962 0 1 1
2762 173 10 0.06 4.973402860120736 12.96539057819319 15.196255893842594 -1 -1 0
4735 296 15 0.06 10.929394152327538 6.609299311532716 20.185471107039746 0 0 -1
2761 173 9 0.06 4.379157715149217 12.332555010109475 12.901290110337516 -1 -1 0
5456 341 16 0 7.783750649394913 8.528841641814644 12.430157116916869 3 -1 0
1520 95 16 0 2.746012888960238 14.01960899761016 12.538505196590208 0 -1 0
5441 341 1 -0.18 10.98414442441805 10.601991461024502 14.237544044919542 3 -1 0
882 56 2 -0.12 10.964349338160831 13.390810371191955 17.888665175128075 0 1 0
4723 296 3 -0.12 10.809758877235751 6.926788461476536 18.088480647449497 0 0 -1
887 56 7 0.06 9.10567090483973 12.256611770034223 18.183471577800603 0 1 0
2753 173 1 -0.18 5.2345191995799 12.957648275516632 13.050936548843127 -1 -1 0
5300 332 4 -0.12 1.9785975428141882 8.524613283092194 16.052858381577014 0 1 0
5443 341 3 -0.12 8.912664900379825 11.045472002181006 12.93029231688549 3 -1 0
888 56 8 0.06 8.917369243349265 13.53836456738455 17.09291725669535 0 1 0
5307 332 11 0.06 3.8847388624799133 8.212468040399294 13.889636855461198 0 1 0
5210 326 10 0.06 7.39605912473495 9.631411965312463 21.019015400329064 1 -1 -1
5336 334 8 0.06 3.0627565744840966 11.587035114409918 20.572927644100304 1 1 1
2759 173 7 0.06 6.107350296290817 12.321575133011518 13.072711343442593 -1 -1 0
1519 95 15 0.06 2.327221699669651 11.624945670982385 12.287332483668223 0 -1 0
890 56 10 0.06 11.293570729242033 14.4466114777807 17.878180081342077 0 1 0
5207 326 7 0.06 9.77674421973912 10.43351574066629 21.457035128231045 1 -1 -1
4726 296 6 -0.45 9.990878704007288 4.272774540884514 18.539770950399678 0 0 -1
1702 107 6 -0.45 3.3073796543379546 3.0386280113211903 20.367987860590144 1 -3 1
4729 296 9 0.06 10.545723194179484 9.740755025700153 17.763050615695605 0 0 -1
5445 341 5 0.45 7.2488217330734495 9.329780207406088 12.05496390513029 3 -1 0
892 56 12 0.06 11.32439917360099 11.482519938937916 19.067221837050383 0 1 0
5306 332 10 0.06 3.318560683593213 9.769853669256646 13.9250490827166 0 1 0
1649 104 1 -0.18 9.058055883306057 3.78363275252016 15.370313335331629 1 -1 0
893 56 13 0.06 11.232561325461242 12.97275095210717 19.94465575291096 0 1 0
5298 332 2 -0.12 3.0045614466238657 8.781604800025399 13.701356204851413 0 1 0
5297 332 1 -0.18 2.5860501848231126 8.62445756117323 12.247784253216615 0 1 0
2440 153 8 0.06 9.630619686749188 4.0071467934036615 12.217293689902517 4 0 3
883 56 3 -0.12 11.62189590542406 12.552509122279828 19.034726163326226 0 1 0
5304 332 8 0.06 2.522772089770999 7.574876337728932 11.974979636733323 0 1 0
2765 173 13 0.06 7.382884285573732 13.965792860693218 14.639955245732882 -1 -1 0
5444 341 4 -0.12 7.945231189891576 10.665775451571704 11.796241127636636 3 -1 0
5447 341 7 0.06 11.632888735126128 9.80497937396214 14.442858090076866 3 -1 0
2433 153 1 -0.18 9.383483584052463 4.915339880916777 11.71014483444004 4 0 3
5335 334 7 0.06 1.8615637886943261 11.451034705815507 19.260020797830368 1 1 1
5216 326 16 0 4.65006800938573 10.187740259039735 24.557987399238623 1 -1 -1
301 19 13 0.06 2.6646711365786913 3.5259760495806853 26.341992938309655 0 4 -1
918 58 6 -0.45 8.519742313783684 6.701913117742416 28.681778437987536 3 1 -3
290 19 2 -0.12 3.3031506147089154 4.724965163288198 27.96020864971999 0 4 -1
291 19 3 -0.12 3.26350195625197 4.464849854728394 26.472971708281754 0 4 -1
303 19 15 0.06 5.222039460053384 3.5073900701661387 25.883308254136956 0 4 -1
298 19 10 0.06 3.917666642801865 3.9720143613660523 28.543523485552086 0 4 -1
927 58 15 0.06 9.93236865086655 4.446726861154917 30.370388908065692 3 1 -3
293 19 5 0.45 5.524054980569199 5.698762724885916 26.17373754688603 0 4 -1
292 19 4 -0.12 4.665478714405227 4.501352991830386 25.75614058956069 0 4 -1
289 19 1 -0.18 1.891746681379016 4.866006680961157 28.539861861225443 0 4 -1
3665 230 1 -0.18 9.43382672794521 5.498895769911231 24.552369028885863 2 1 2
300 19 12 0.06 2.671934690516923 5.2467823916297345 25.989716858487004 0 4 -1
299 19 11 0.06 3.8129311494832696 5.665165568810409 28.249626246279103 0 4 -1
3619 227 3 -0.12 4.852849712981753 10.482658301470366 31.210603875320142 2 1 -1
928 58 16 0 10.524663616652905 6.165237135239273 28.662072775847793 3 1 -3
3621 227 5 0.45 7.3462905605206865 9.988657023531255 31.033140137077666 2 1 -1
5213 326 13 0.06 7.1433204675435 7.611429519965914 22.178725844494487 1 -1 -1
1700 107 4 -0.12 2.1969273019026536 2.5232342564583172 22.36459997166169 1 -3 1
917 58 5 0.45 9.475384415164248 5.93815123628379 28.863447436421342 3 1 -3
3673 230 9 0.06 8.479945507894357 4.991754291162694 24.25498358682109 2 1 2
5378 337 2 -0.12 8.988737618367821 14.912725264596597 23.27279106922501 -2 2 0
1759 110 15 0.06 11.638272512342322 9.492861712233076 27.323399238737295 0 0 1
5214 326 14 0.06 5.331295766805638 7.8659772268543025 23.565115893053154 1 -1 -1
3620 227 4 -0.12 5.942565644760858 9.481896964968136 30.764107034712538 2 1 -1
2960 185 16 0 7.570003016350364 14.792321788520667 27.472637268616015 1 -1 -1
916 58 4 -0.12 9.340030718413281 4.502193762188259 29.453290843089288 3 1 -3
3671 230 7 0.06 9.178709702441836 6.589250130439476 24.80279084639858 2 1 2
3666 230 2 -0.12 10.532127146946763 5.3794743639945075 23.52493930503873 2 1 2
3672 230 8 0.06 9.763899830908368 4.908032954296136 25.420406048402437 2 1 2
3226 202 10 0.06 11.44335173070408 12.121166034290757 23.972738403212897 0 -2 -1
3675 230 11 0.06 10.821775242302135 4.361865503326955 23.441394761107965 2 1 2
1709 107 13 0.06 4.292910996149262 2.126809829980266 22.5031945380986 1 -3 1
926 58 14 0.06 9.673356603242247 3.923100311346688 28.56957632050029 3 1 -3
3677 230 13 0.06 11.571702338511981 7.133794403129211 24.251934217786978 2 1 2
5209 326 9 0.06 9.733166667712826 9.773778373650085 23.061417209290408 1 -1 -1
315 20 11 0.06 8.097266584828287 3.068593450216107 26.7895885301575 2 -1 -3
2953 185 9 0.06 2.73710064124707 12.821273453098016 26.623084278512117 1 -1 -1
1710 107 14 0.06 2.1047995717370824 3.198182436770827 23.17514070837847 1 -3 1
924 58 12 0.06 7.383395036342414 4.456167689592359 29.20126052775819 3 1 -3
5385 337 9 0.06 7.485797073730599 13.633548561822218 22.288312922789373 -2 2 0
294 19 6 -0.45 5.478638306023246 6.784008502749646 25.572650795344224 0 4 -1
3622 227 6 -0.45 7.634794533438853 11.132885245543958 31.287787639465094 2 1 -1
915 58 3 -0.12 7.99655025550194 4.028932114594849 29.963347680641387 3 1 -3
304 19 16 0 6.088218408951873 5.613292534276468 27.150260361515247 0 4 -1
5202 326 2 -0.12 7.858935566600731 9.640699755128974 22.045042231016488 1 -1 -1
5201 326 1 -0.18 9.393658222737567 9.621821441570866 22.05270120793287 1 -1 -1
5204 326 4 -0.12 5.844487269413675 8.754689523156117 23.233356485379964 1 -1 -1
5387 337 11 0.06 9.825416626203513 14.322859121052161 22.883426385943345 -2 2 0
925 58 13 0.06 7.9520803767030115 2.8858595140778363 29.95736133007916 3 1 -3
1757 110 13 0.06 10.248210195061896 10.031759885951004 29.645634121302738 0 0 1
2946 185 2 -0.12 4.893076105141833 13.362862671635414 26.300541502242258 1 -1 -1
316 20 12 0.06 9.543428140544602 2.5735332916258558 24.967162697409925 2 -1 -3
1758 110 14 0.06 10.118709494242461 8.827800911414249 27.869541796510386 0 0 1
5215 326 15 0.06 5.379389932991899 9.232878119554531 22.400073658361652 1 -1 -1
5208 326 8 0.06 9.784068295738205 8.649030034238839 21.807736870823152 1 -1 -1
5203 326 3 -0.12 7.308782096653721 8.432111696791814 22.84587535558568 1 -1 -1
302 19 14 0.06 4.42400635153931 4.516999484531255 24.679803825890705 0 4 -1
2951 185 7 0.06 3.072519449080664 13.31928159676139 25.18372189208711 1 -1 -1
2950 185 6 -0.45 8.497892514538222 13.926775350438337 29.162448566818462 1 -1 -1
3674 230 10 0.06 10.220836491021377 5.6888273394962345 22.495142465996885 2 1 2
464 29 16 0 11.519942415468126 3.36205228466976 27.316653727893335 0 -1 -5
5211 326 11 0.06 7.453257302329769 10.53029966404583 22.454240366097252 1 -1 -1
5388 337 12 0.06 9.544991964783197 14.970735138030191 25.46615454322992 -2 2 0
2947 185 3 -0.12 5.3366170267598605 13.152057508947976 27.736195190899352 1 -1 -1
2956 185 12 0.06 4.554855462051668 12.44847152509432 28.119144171587582 1 -1 -1
5383 337 7 0.06 6.819529078265572 14.923120334653506 23.378302929250058 -2 2 0
919 58 7 0.06 5.714382570567128 3.528805374076096 31.046110823910052 3 1 -3
3630 227 14 0.06 5.890213154998648 9.184579223819354 29.71991189078022 2 1 -1
5384 337 8 0.06 7.506751710014755 13.399873942562877 24.029529825048815 -2 2 0
2957 185 13 0.06 5.118749869565637 14.102844699808143 28.25148580081316 1 -1 -1
3632 227 16 0 8.133068088759739 9.317042030194216 30.700497316869612 2 1 -1
3627 227 11 0.06 2.9700485606273164 9.192753853481415 30.803296455066153 2 1 -1
5205 326 5 0.45 5.654874272774587 9.733196443882843 24.37904999969644 1 -1 -1
2959 185 15 0.06 6.822410723334682 12.09409166285386 28.949222410466213 1 -1 -1
317 20 13 0.06 7.968504311358431 2.1070754518403736 24.43510477528665 2 -1 -3
5212 326 12 0.06 7.907210893031655 8.127452706933969 23.70021003189731 1 -1 -1
2955 185 11 0.06 5.1946550724046725 12.63130307036014 25.582681506444693 1 -1 -1
5341 334 13 0.06 2.2918596548853527 11.513751829198014 23.053338896744087 1 1 1
2949 185 5 0.45 7.737341947049321 13.9220562982417 28.181814598408582 1 -1 -1
1750 110 6 -0.45 9.498480918743377 11.461853763696533 26.235250140940167 0 0 1
2954 185 10 0.06 5.413050672165683 14.318028789924874 25.918419636874354 1 -1 -1
2948 185 4 -0.12 6.747308641539164 12.722833991932319 28.02432842011301 1 -1 -1
1760 110 16 0 10.036951182053338 9.632275198042088 25.522580488986925 0 0 1
2958 185 14 0.06 7.07053917347103 12.118952652488332 27.198660897446615 1 -1 -1
1756 110 12 0.06 9.820366784388561 11.408670045531554 28.83762047323944 0 0 1
1747 110 3 -0.12 10.639642779085213 10.648989709840471 28.837690669980113 0 0 1
2952 185 8 0.06 3.1020293085845942 14.539668461307615 26.486249206382716 1 -1 -1
5206 326 6 -0.45 6.62750933381039 10.15058756633564 24.981806062877528 1 -1 -1
5377 337 1 -0.18 7.642027054807153 14.151535067133874 23.256431244231276 -2 2 0
1748 110 4 -0.12 10.62952128864789 9.791246198874795 27.600150871216382 0 0 1
307 20 3 -0.12 8.756241868497712 1.8704106812206729 25.152507835896017 2 -1 -3
1749 110 5 0.45 9.992190459367524 10.31922447876234 26.344441620628462 0 0 1
4166 261 6 -0.45 7.1695649844180735 2.5636105342546966 22.15656454122994 0 -1 -1
306 20 2 -0.12 8.399563487312154 2.0239823304852997 26.64623877011683 2 -1 -3
2945 185 1 -0.18 3.388961747001647 13.527253527389503 26.195282478959033 1 -1 -1
3629 227 13 0.06 4.879394804979501 11.425168246610454 30.627128080536796 2 1 -1
923 58 11 0.06 7.554530952976838 5.734525960496198 31.351910668226406 3 1 -3
1754 110 10 0.06 11.67332214600493 12.08188381083858 30.069630287506158 0 0 1
3626 227 10 0.06 2.781444484566728 10.868394340360325 31.3072677897683 2 1 -1
1438 90 14 0.06 11.221227546227773 14.964387531963245 31.23114587544149 -1 -1 -1
3356 210 12 0.06 7.126027207292958 4.977501813048029 38.1923653587328 0 2 4
3345 210 1 -0.18 9.106295315595535 4.09676310692278 35.402861926881414 0 2 4
3348 210 4 -0.12 9.331451319855029 4.734845049562706 38.59126127431685 0 2 4
3359 210 15 0.06 9.257030877554705 3.76689712848602 39.05444592394948 0 2 4
3349 210 5 0.45 9.484823528577994 5.799925834988011 39.69756826163583 0 2 4
3360 210 16 0 10.29899019800111 5.629566656916957 40.32562735788005 0 2 4
3350 210 6 -0.45 8.69958547611867 6.761750543810507 39.75537493524977 0 2 4
1911 120 7 0.06 2.9357928232539465 4.8124609871733695 32.54455949500248 0 0 -1
3347 210 3 -0.12 8.125350069082826 4.8843877148693 37.57673326969505 0 2 4
2233 140 9 0.06 2.105227605698762 7.129610596863855 36.38984973521959 0 -2 0
913 58 1 -0.18 6.178906156966371 4.157980495287483 31.78093738008038 3 1 -3
3357 210 13 0.06 8.199516333191148 5.8376578529209 37.134418160266804 0 2 4
1719 108 7 0.06 3.397066015226156 14.356277113602689 31.749835277546453 -1 -1 -1
3358 210 14 0.06 10.305145454389024 4.673804538402299 38.099135413657244 0 2 4
951 60 7 0.06 8.618514615418299 7.543937553538325 34.14266858397166 1 2 -1
1720 108 8 0.06 5.002021058563232 13.843884087454231 31.541352882986484 -1 -1 -1
3354 210 10 0.06 8.305222143954474 2.8182149490708066 36.96661941069274 0 2 4
3346 210 2 -0.12 8.128379894508758 3.763690879624494 36.49175635858036 0 2 4
953 60 9 0.06 9.633844314151052 8.902878876298884 33.549651589258055 1 2 -1
3355 210 11 0.06 7.134831903478013 3.759087293534039 36.187449772132844 0 2 4
3208 201 8 0.06 5.4872377821156295 14.740929472080358 38.567365222239324 2 3 -1
3352 210 8 0.06 10.10000609779903 4.046893586441206 35.77029416752504 0 2 4
952 60 8 0.06 8.829895915565771 7.742823931083266 32.414752745339456 1 2 -1
3351 210 7 0.06 9.036399803374557 3.320185571191884 34.6326095921209 0 2 4