LAMMPS data file via write_data, version 29 Aug 2024, timestep = 1000000, units = real

6561 atoms
9 atom types
5832 bonds
8 bond types
9477 angles
13 angle types
8748 dihedrals
12 dihedral types

0.16525103305695765 44.83474896694433 xlo xhi
0.16525103305695765 44.83474896694433 ylo yhi
0.16525103305695765 44.83474896694433 zlo zhi

Masses

1 12.011
2 12.011
3 32.06
4 1.008
5 1.008
6 1.008
7 1.008
8 1.008
9 1.008

Pair Coeffs # lj/cut/coul/long

1 0.066 3.5
2 0.066 3.5
3 0.425 3.6
4 0.03 2.5
5 0.03 2.5
6 0.03 2.5
7 0.03 2.5
8 0.03 2.5
9 0 0

Bond Coeffs # harmonic

1 268 1.529
2 222 1.81
3 340 1.09
4 340 1.09
5 340 1.09
6 340 1.09
7 340 1.09
8 274 1.336

Angle Coeffs # harmonic

1 50 108.6
2 37.5 110.7
3 37.5 110.7
4 37.5 110.7
5 37.5 110.7
6 37.5 110.7
7 44 96
8 33 107.8
9 33 107.8
10 35 109.5
11 35 109.5
12 33 107.8
13 33 107.8

Dihedral Coeffs # opls

1 0 0 0.452 0
2 -0.759 -0.282 0.68 0
3 0 0 0.452 0
4 0 0 0.3 0
5 0 0 0.48 0
6 0 0 0.48 0
7 0 0 0.3 0
8 0 0 0.3 0
9 0 0 0.3 0
10 0 0 0.452 0
11 0 0 0.3 0
12 0 0 0.3 0

Atoms # full

2966 330 5 0.06 5.919396382160805 1.8490280671966552 1.4448202633086804 -2 -1 2
3391 377 7 0.06 4.555394682863341 7.865514258397425 11.172665175727959 -1 3 2
2953 329 1 -0.18 7.122246370493132 1.3666491267853007 4.51160133586969 1 1 0
400 45 4 0.06 9.033378368351618 1.2654334388857469 10.387556595243023 -1 1 -2
5516 613 8 0.06 7.549148141454656 7.909750605918629 1.6288023350981646 2 3 -1
1955 218 2 0.06 1.9896233883856445 1.1716297157086937 2.561603235885214 -1 1 1
1960 218 7 0.06 2.6508969088657 1.4763383750418622 1.7189907674970986 -1 1 1
2957 329 5 0.06 6.369886373482733 1.4001843747166458 5.307874445306231 1 1 0
2956 329 4 0.06 7.056373589201949 2.2870143519623762 3.954067261170102 1 1 0
1961 218 8 0.06 1.0348897609745427 1.737444964272139 2.633899759962074 -1 1 1
5509 613 1 -0.18 7.424261386431276 6.359053905298844 3.082928819932175 2 3 -1
2462 274 5 0.06 3.6562338774037353 10.845811123381512 7.672549149933228 -3 2 2
651 73 3 -0.335 3.0413486642956764 14.271286366288892 2.894054619134586 4 2 1
5510 613 2 0.06 7.731782373955615 7.78413552262272 2.6595919151205494 2 3 -1
3178 354 1 -0.18 2.947358493301386 3.750014411470279 6.722940696277084 -1 -1 -3
3182 354 5 0.06 1.8795976653073658 3.8002227623327 6.757139536230742 -1 -1 -3
2961 329 9 0.155 7.78326005369114 2.8429431253609483 6.405845344954137 1 1 0
1959 218 6 0.06 2.9239852773653445 2.228893654722299 4.1599477062768155 -1 1 1
5515 613 7 0.06 6.964221243122368 8.392215010604376 3.1497647850807335 2 3 -1
3184 354 7 0.06 4.507674361025758 4.707684690261761 7.919597191529383 -1 -1 -3
3179 354 2 0.06 3.439216982135853 4.758204585879467 7.768950755367348 -1 -1 -3
3183 354 6 0.06 3.2452404677693134 2.693576107408832 6.979378149129642 -1 -1 -3
6312 702 3 -0.335 2.0989400204166677 4.98920598584282 3.1884835126633613 2 -2 1
6311 702 2 0.06 1.9311866449570618 6.6900824969798425 2.862972188177218 2 -2 1
399 45 3 -0.335 7.027522708592123 2.586087127056444 8.962595128903315 -1 1 -2
1217 136 2 0.06 3.7014415807163847 13.523099976328062 10.073453559252329 0 1 1
401 45 5 0.06 9.617366275496265 0.8678382216397764 8.70885538914549 -1 1 -2
2083 232 4 0.06 9.334513932433143 7.0850432435224775 7.123766024093286 3 1 -2
4451 495 5 0.06 6.929017224372141 14.350071724526018 10.110566973385716 1 -1 1
403 45 7 0.06 6.740239515996715 0.4373169967329371 9.871856368940705 -1 1 -2
398 45 2 0.06 7.393036539257287 0.8214604785474734 9.05805265675877 -1 1 -2
2085 232 6 0.06 9.717205298757193 7.189834694240044 9.00648160695849 3 1 -2
2080 232 1 -0.18 9.073628982642841 7.541825360857107 8.134200978374416 3 1 -2
1954 218 1 -0.18 2.714795753820568 1.2756631617339609 3.9356279172627073 -1 1 1
2084 232 5 0.06 8.09409734731316 7.058149152358915 8.358001573574448 3 1 -2
3259 363 1 -0.18 11.09336207154714 5.410046775467093 4.840980641007818 -1 -5 -2
6317 702 8 0.06 1.135714448708905 7.250838696950394 3.3247748014269902 2 -2 1
6316 702 7 0.06 1.8271452224047189 6.905094642418956 1.830224362607654 2 -2 1
1957 218 4 0.06 3.6243976734585868 0.8405714303038115 3.7721283317943795 -1 1 1
5511 613 3 -0.335 9.506700064346008 8.194067607120633 2.9018370396085675 2 3 -1
404 45 8 0.06 7.181317656849806 0.43283459517849426 8.091837634411478 -1 1 -2
5517 613 9 0.155 10.09117165388345 7.356685496073464 2.056141053830985 2 3 -1
3129 348 6 0.06 6.8720458474072235 13.589809535266152 6.5687896155817445 1 1 1
5513 613 5 0.06 6.338625422302101 6.193543196411459 2.8786553312420957 2 3 -1
2955 329 3 -0.335 8.988147990896973 2.7073995471215535 5.722223137385067 1 1 0
5514 613 6 0.06 7.493214799057104 6.099870884826449 4.189851959949821 2 3 -1
3181 354 4 0.06 3.302922127155401 3.985503288778742 5.701874236054597 -1 -1 -3
6318 702 9 0.155 2.3962604538029866 5.0569913854221795 4.527191845129054 2 -2 1
3405 379 3 -0.335 0.7922061889441947 12.631358014658348 0.49249956235464243 2 -3 0
5512 613 4 0.06 7.948360255540822 5.650096676205503 2.4873357257664104 2 3 -1
4448 495 2 0.06 9.089373253925988 14.419580838919765 10.29671260988024 1 -1 1
2960 329 8 0.06 8.578125521943969 0.29094405993502975 5.661254909190605 1 1 0
3393 377 9 0.155 5.814043777320124 10.141658637385994 10.736502331963825 -1 3 2
1958 218 5 0.06 2.1282888247539122 0.8520783782000523 4.765937539764116 -1 1 1
405 45 9 0.155 8.036119372978376 2.9061027936133006 8.23593653195605 -1 1 -2
3185 354 8 0.06 2.937750405918982 4.62619464655978 8.708848402578877 -1 -1 -3
6315 702 6 0.06 4.0714766348769205 6.854977330385491 2.6056767684268025 2 -2 1
657 73 9 0.155 2.769827212553552 13.352928640919897 3.80142364299422 4 2 1
3180 354 3 -0.335 3.1814194090896772 6.450334944427655 7.1544356165990965 -1 -1 -3
3186 354 9 0.155 1.9490946246399694 6.546334794197007 7.533596854104368 -1 -1 -3
2088 232 9 0.155 6.890981214560697 9.452498386529578 7.467310569545336 3 1 -2
2086 232 7 0.06 10.077452861580905 9.435822053401699 7.773341407049185 3 1 -2
2967 330 6 0.06 4.44853368912845 1.9142187274884384 0.49810352073983394 -2 -1 2
2962 330 1 -0.18 5.55746666825004 1.7844189884068458 0.42206562068153375 -2 -1 2
649 73 1 -0.18 4.119988638611876 13.772563125287173 0.5724582027456067 4 2 1
2082 232 3 -0.335 7.926513600654725 9.571346512854051 6.678863279226889 3 1 -2
2081 232 2 0.06 9.04587906606932 9.076094299500122 8.033577781223169 3 1 -2
1222 136 7 0.06 3.4991473311485497 12.500127839765016 10.34074156193404 0 1 1
2459 274 2 0.06 4.366065568195033 9.944661493638817 5.82909344263928 -3 2 2
3386 377 2 0.06 5.403739162625173 7.891221760225715 10.493643799386064 -1 3 2
3392 377 8 0.06 5.243120783960781 7.133664636607086 9.737105919300179 -1 3 2
3683 410 2 0.06 11.058693217033838 1.7823408000438672 0.9772688401043838 2 -2 0
1224 136 9 0.155 1.5407198622406448 14.623584863652582 9.792441678463133 0 1 1
4965 552 6 0.06 10.971152666255604 2.4823194418178027 9.433552865217083 1 4 -1
218 25 2 0.06 10.727974335946698 11.854029511944692 5.428140952392338 1 -1 1
220 25 4 0.06 9.872718033924555 12.333916750874833 3.4910469120161736 1 -1 1
4449 495 3 -0.335 9.465908721044036 13.513715060688464 8.734112614369034 1 -1 1
3062 341 2 0.06 8.831100811473497 11.39038267705318 0.6537816266224868 -3 0 1
3410 379 8 0.06 1.276679191737857 10.537165705114589 1.5618453270185886 2 -3 0
3689 410 8 0.06 10.25577910444122 1.477889439953716 1.704768684747696 2 -2 0
4455 495 9 0.155 8.73266562764524 14.463649955244719 8.110013952087275 1 -1 1
3404 379 2 0.06 0.3723998355704397 11.058732940773037 1.1386852555120472 2 -3 0
3132 348 9 0.155 8.939444828826412 14.111237978788436 4.77943302975879 1 1 1
3067 341 7 0.06 9.38149347591309 11.732400098424037 1.5199023560880158 -3 0 1
2464 274 7 0.06 3.3087951640191857 9.638516329392644 5.553813854205437 -3 2 2
2461 274 4 0.06 5.285513857565549 11.17161253204802 7.219194062057678 -3 2 2
1223 136 8 0.06 4.59327012491881 13.462154887780978 9.43521832125377 0 1 1
2465 274 8 0.06 4.82591655746385 9.13130472483883 6.399828408767033 -3 2 2
3411 379 9 0.155 1.6196938642790062 12.756287357342812 1.5104842875344453 2 -3 0
224 25 8 0.06 11.052812749615317 12.863166897803529 5.696542552064214 1 -1 1
6314 702 5 0.06 3.4546857087778133 8.4291370105077 2.9825208221953874 2 -2 1
6313 702 4 0.06 3.494471480443541 7.198930227639185 4.245636133826015 2 -2 1
6310 702 1 -0.18 3.304135313805138 7.332919908858211 3.170911950506838 2 -2 1
656 73 8 0.06 3.8398976276055268 12.227475687116215 2.0489005836432943 4 2 1
2087 232 8 0.06 8.70659021091275 9.530612873480012 8.929144893864393 3 1 -2
5723 636 8 0.06 1.221851754639539 5.78156192260966 9.577104146086551 1 -2 3
1218 136 3 -0.335 2.455637305456295 14.205358807164963 8.87683560442325 0 1 1
3389 377 5 0.06 7.501367765504218 7.674270517762637 10.426714296849283 -1 3 2
2954 329 2 0.06 8.536373256671226 1.1568817811193886 5.003766544532965 1 1 0
223 25 7 0.06 10.29830397515238 11.325324225270128 6.300123577915365 1 -1 1
2958 329 6 0.06 6.795200791450169 0.610750935285167 3.875822758797966 1 1 0
1216 136 1 -0.18 3.7711463923392112 14.442439577251385 11.259217226047417 0 1 1
221 25 5 0.06 8.716158245266085 12.337453741190743 4.910247556337635 1 -1 1
2466 274 9 0.155 6.459705764493962 10.894393128400061 4.856682447585082 -3 2 2
655 73 7 0.06 5.116040251629007 13.418621467079712 2.6776333784883954 4 2 1
2460 274 3 -0.335 5.27510478778032 10.45554205829955 4.3206191952360395 -3 2 2
2463 274 6 0.06 4.006260059878906 12.077128161426868 6.326015452391861 -3 2 2
217 25 1 -0.18 9.581265657956983 11.847934668592199 4.441827864887218 1 -1 1
650 73 2 0.06 4.205854281066846 13.25106378890056 2.012621361633282 4 2 1
3387 377 3 -0.335 5.313935941293496 9.46891068897742 9.713573187879312 -1 3 2
3263 363 5 0.06 10.490996734123174 5.3067766514009955 3.901277874622854 -1 -5 -2
5739 638 6 0.06 0.5727167753816684 9.193033913526074 11.040018439466639 4 0 -1
3409 379 7 0.06 0.17157961059804905 10.471621141329237 0.1942065618734004 2 -3 0
2458 274 1 -0.18 4.286862268486865 11.119094764962158 6.82924072815761 -3 2 2
222 25 6 0.06 9.356766522134949 10.83880845231403 4.1848482989481735 1 -1 1
3262 363 4 0.06 10.336237079440165 5.148035590560927 5.608892228400235 -1 -5 -2
3063 341 3 -0.335 7.225311260441945 10.900583426811153 1.0244835394243017 -3 0 1
4453 495 7 0.06 9.21427290349096 13.624989036830035 10.987749120602825 1 -1 1
654 73 6 0.06 4.24959538767156 14.857346472018415 0.4987020960365532 4 2 1
3541 394 4 0.06 4.646931176999564 5.369551126447712 0.6828202179590425 0 -1 -1
3069 341 9 0.155 7.567176936254547 10.350973672038961 2.187951059342662 -3 0 1
3124 348 1 -0.18 6.22633913591729 14.18145013582957 5.952830706442406 1 1 1
2959 329 7 0.06 9.230748802398619 1.0527181839481838 4.144142725539287 1 1 0
3385 377 1 -0.18 6.691967138994631 7.774208303857837 11.223909400715534 -1 3 2
397 45 1 -0.18 8.83706779838572 0.6197262958266646 9.477249347995043 -1 1 -2
3131 348 8 0.06 6.715367216903057 14.29125145419191 3.9482316432164173 1 1 1
3125 348 2 0.06 6.7819573036014456 14.956292495111366 4.782818879520179 1 1 1
3127 348 4 0.06 5.468843093288177 13.53871153918094 5.542631055032693 1 1 1
5741 638 8 0.06 0.335864759626748 11.58566035344134 10.965241774496242 4 0 -1
3128 348 5 0.06 5.659642101159434 14.909335474469982 6.539432877943463 1 1 1
99 11 9 0.155 8.601878901908142 4.881525896418222 0.27634477434627847 -1 -3 1
4947 550 6 0.06 0.17934367529900896 2.658960311866743 0.6005656283082992 -1 2 1
4447 495 1 -0.18 7.7426203687878035 15.021198644152477 10.18103808111217 1 -1 1
36 4 9 0.155 5.863646828331966 3.915777744327386 11.311933374063619 1 1 2
3598 400 7 0.06 6.850915115766691 3.0008975299760685 17.69491277215164 -3 1 1
2685 299 3 -0.335 6.3773788285492685 0.9214088435330069 19.914027916982324 3 4 -2
1369 153 1 -0.18 2.21175968279983 0.650909173575372 21.873798750881484 2 -3 -2
34 4 7 0.06 6.391755102561649 1.6329363397289316 12.734048519853085 1 1 2
3593 400 2 0.06 7.40988047074804 3.448518688449186 16.897972968467908 -3 1 1
5450 606 5 0.06 6.823892052294464 6.269509311986359 20.46488017043491 1 0 3
3599 400 8 0.06 6.662642454448019 4.080607413834125 16.388306359277816 -3 1 1
3594 400 3 -0.335 8.770234688601143 4.397798628592686 17.507171700602765 -3 1 1
6153 684 6 0.06 2.4503902993972217 6.176932592588729 12.447598800200094 4 0 2
35 4 8 0.06 5.533415120644902 2.138276768496998 14.169930979656991 1 1 2
3592 400 1 -0.18 8.025265838567929 2.4146557356860483 15.965922513414284 -3 1 1
2688 299 6 0.06 7.199215745672803 2.715884490655048 22.168845716793204 3 4 -2
5449 606 4 0.06 7.72766913289069 7.194081737895678 21.471481082074515 1 0 3
3597 400 6 0.06 8.254268658089364 2.9221335199551874 15.028754338919054 -3 1 1
5446 606 1 -0.18 6.704347319912339 7.0272729186261 21.30061063942763 1 0 3
3596 400 5 0.06 9.014149055663282 1.9738238650355548 16.34860567733149 -3 1 1
5447 606 2 0.06 5.748240667995179 8.192223092885335 20.83594328010222 1 0 3
3595 400 4 0.06 7.361117524711269 1.6901214339784287 15.541133911555907 -3 1 1
5451 606 6 0.06 6.329176169201245 6.418737940827414 22.180804757716594 1 0 3
29 4 2 0.06 5.621592348483114 2.315975744032217 13.086672200760937 1 1 2
30 4 3 -0.335 5.936666691284486 4.063812904350001 12.64903456876449 1 1 2
2819 314 2 0.06 11.130090044274095 3.124345939727461 13.993002006612151 1 -2 0
28 4 1 -0.18 4.302350745388583 1.8959941748754137 12.532471284365606 1 1 2
1601 178 8 0.06 7.568672509105813 12.88980169062027 16.270191617472083 0 2 0
33 4 6 0.06 3.456919364655849 2.5365148262445145 12.824990144052546 1 1 2
6148 684 1 -0.18 1.7120752886265231 6.405340529007746 13.200535213526031 4 0 2
3600 400 9 0.155 9.414076924007539 3.3965714946503636 18.130574779603744 -3 1 1
31 4 4 0.06 4.25541023358092 0.9044285431240712 12.745071335306257 1 1 2
1219 136 4 0.06 4.612166393938914 14.24813568671987 12.053189809573572 0 1 1
3846 428 3 -0.335 4.162943166690342 2.0203789950012214 16.909948511973543 1 -3 0
2689 299 7 0.06 5.819855975501974 3.085353664067841 19.42291413156194 3 4 -2
1492 166 7 0.06 0.9608701568901185 3.7226891404057145 19.87835289738074 2 0 1
5452 606 7 0.06 5.3451992578986856 8.576000135178344 21.84214144192909 1 0 3
2687 299 5 0.06 8.253430309867147 3.1665125401664356 20.787637867765987 3 4 -2
2794 311 4 0.06 9.150956916507322 7.843230234324738 12.635580146970083 1 2 0
1487 166 2 0.06 1.171252372232516 4.681963453335746 19.46439920804215 2 0 1
6149 684 2 0.06 1.5073823690711032 5.228676966001569 14.073108476616078 4 0 2
2691 299 9 0.155 6.784376009866567 0.39478995932320415 21.074970303260834 3 4 -2
32 4 5 0.06 4.300659985975834 1.9991622920087466 11.429544644313644 1 1 2
1488 166 3 -0.335 0.21831704262415444 4.923112124231817 17.970065381643312 2 0 1
2796 311 6 0.06 10.70070055094199 7.084642016828349 13.127487034739566 1 2 0
5735 638 2 0.06 0.21674829080098798 11.134319129088654 11.927935664051066 4 0 -1
6150 684 3 -0.335 0.6618188060084237 3.916663477840412 13.096779033100965 4 0 2
2683 299 1 -0.18 7.207881323149835 3.2198895523814652 21.206395925572206 3 4 -2
3852 428 9 0.155 3.0073376661315008 2.0552500325053193 16.29242327752758 1 -3 0
2820 314 3 -0.335 10.57679381616758 3.6016322841219646 12.345787949023373 1 -2 0
1788 199 6 0.06 1.6433001461766499 11.371607810901375 17.62600136423645 -1 2 0
804 90 3 -0.335 5.914172158325232 11.545872289407328 13.190183897771695 1 0 -1
3845 428 2 0.06 4.381367235515088 0.2014345153966236 16.976027894840286 1 -3 0
6155 684 8 0.06 2.4340208874001563 4.792428796161639 14.609122187920855 4 0 2
2799 311 9 0.155 10.547870968397085 7.891819714957408 15.141299909156405 1 2 0
2825 314 8 0.06 10.331792313302522 2.931088613510937 14.718504365427842 1 -2 0
1491 166 6 0.06 1.0299239052526072 5.373895750644241 21.53680953430457 2 0 1
1600 178 7 0.06 8.723125582548588 13.978702906740025 17.001012842869017 0 2 0
6156 684 9 0.155 1.723978385435044 3.6588810493815678 12.302878634605666 4 0 2
5742 638 9 0.155 0.47627185324735655 11.215059525339727 14.110160949173975 4 0 -1
2795 311 5 0.06 9.36249818428785 6.137374375935489 12.37215471912832 1 2 0
6152 684 5 0.06 0.8506301352401845 6.848530588205044 12.679949418143726 4 0 2
2353 262 4 0.06 11.108531403147413 10.38281272878948 11.666538405337427 -2 3 -1
4579 509 7 0.06 4.636858993593303 14.031890001152927 20.986592415024468 -3 4 -1
3390 377 6 0.06 6.93736617453839 6.8921785880891635 11.88685507490575 -1 3 2
2791 311 1 -0.18 9.555855088522593 6.9573677805767735 13.052217675872521 1 2 0
2686 299 4 0.06 6.960839327345568 4.258174426837948 21.59389840698671 3 4 -2
278 31 8 0.06 1.90951677495908 14.148135298678676 20.52642918267396 -3 2 0
1374 153 6 0.06 3.098754255312333 1.190935815026362 21.657704548132507 2 -3 -2
6154 684 7 0.06 0.8361681487564696 5.501585297323051 14.880565097171118 4 0 2
1787 199 5 0.06 3.366214431638724 10.598952261265891 17.58077925389351 -1 2 0
1785 199 3 -0.335 3.0857749646364687 8.098878404436249 18.110254187452284 -1 2 0
6083 676 8 0.06 5.592011418167024 14.347679456332814 16.9067139154353 1 1 -3
1602 178 9 0.155 8.360141513250866 14.966210602909578 14.735190345382906 0 2 0
1486 166 1 -0.18 0.6035834336441135 5.666806692468834 20.537616288797167 2 0 1
707 79 5 0.06 11.164868518824925 14.364954690284582 19.274904309564786 4 2 0
1429 159 7 0.06 1.3035805477883375 14.264452714288796 15.053352369450765 -3 -3 -1
5453 606 8 0.06 4.986021874307998 7.768151945032664 20.224935710661473 1 0 3
4985 554 8 0.06 2.040039333739829 10.364403631070157 21.77828050899179 2 0 -1
1832 204 5 0.06 10.26646764020753 0.31239841119078404 18.1341482690881 0 3 2
807 90 6 0.06 6.178243231382066 11.16283231878549 16.503472008558088 1 0 -1
1599 178 6 0.06 10.487499375322175 11.974556389901691 16.508675586516283 0 2 0
941 105 5 0.06 10.347115676310942 8.485058284704289 21.185719203525345 -1 0 -1
3388 377 4 0.06 6.911306662086317 8.58795512925286 11.975703415560403 -1 3 2
1596 178 3 -0.335 9.092257684920519 13.876554776285106 14.61247523198433 0 2 0
2690 299 8 0.06 5.0510803833097215 2.697113104666373 20.86071700251013 3 4 -2
1493 166 8 0.06 2.2406775702608095 4.74123649118563 19.29361306974819 2 0 1
4573 509 1 -0.18 5.751078776601067 12.45834650055049 22.060724113311245 -3 4 -1
2798 311 8 0.06 7.772139236199987 6.591981056730561 14.25498235897695 1 2 0
1783 199 1 -0.18 2.24600388179317 10.466854192439703 17.371266083980355 -1 2 0
6151 684 4 0.06 2.1251505367679897 7.2044589537077925 13.824148497589777 4 0 2
277 31 7 0.06 0.6956543469670939 13.842276842558535 21.701384209828753 -3 2 0
2355 262 6 0.06 10.473104021168734 12.047852568547087 11.897263391905064 -2 3 -1
419 47 5 0.06 3.5438128321467843 5.5471998154484705 22.455431267647967 0 3 1
1784 199 2 0.06 1.8782043698683215 9.406744551138237 18.390123871107143 -1 2 0
4575 509 3 -0.335 5.789254817288521 12.688130905728967 19.35715997832639 -3 4 -1
2684 299 2 0.06 6.013749708818185 2.617006716633689 20.433585832082898 3 4 -2
803 90 2 0.06 5.030036637208232 10.982042885092051 14.673284635293589 1 0 -1
1790 199 8 0.06 1.8263925985200884 9.836305247842242 19.44967166191278 -1 2 0
806 90 5 0.06 5.442461265938947 9.58011710719407 16.17367687892496 1 0 -1
4574 509 2 0.06 4.851209177136208 12.945800709038485 20.87640960215603 -3 4 -1
1791 199 9 0.155 3.3358552423690515 8.20124978972251 16.77521455478566 -1 2 0
4577 509 5 0.06 6.570538809238819 13.081485055930104 22.23584775023147 -3 4 -1
5736 638 3 -0.335 0.8484209219309754 12.12187769580566 13.258743089052347 4 0 -1
1220 136 5 0.06 2.7705613549754924 14.39095739310572 11.753231340859939 0 1 1
802 90 1 -0.18 6.014355999606745 10.372932063955897 15.702269365307039 1 0 -1
942 105 6 0.06 9.671589967585792 8.416832790854995 19.503096602469636 -1 0 -1
1595 178 2 0.06 8.622246636293545 13.138554578261159 16.225605909000656 0 2 0
272 31 2 0.06 0.8182057612078987 14.095877758664587 20.645858646257214 -3 2 0
2792 311 2 0.06 8.872604507147463 6.643023072339748 14.36990825361773 1 2 0
809 90 8 0.06 4.239194473127349 10.274881024144126 14.301896316901582 1 0 -1
1490 166 5 0.06 0.8991645971807493 6.667584042429263 20.21148064475947 2 0 1
940 105 4 0.06 10.232137801686385 9.876871517343696 20.063304856754026 -1 0 -1
2797 311 7 0.06 9.257366805206056 5.75702306232783 14.795733183357619 1 2 0
1598 178 5 0.06 8.901168813956575 11.24063646034005 17.143593596296434 0 2 0
5454 606 9 0.155 6.251845130787096 9.215623108474299 18.574633168674435 1 0 3
1597 178 4 0.06 9.243515937110466 11.235520364680175 15.480101151003298 0 2 0
1373 153 5 0.06 1.3055469913076496 1.3604304025648901 21.95278068726851 2 -3 -2
808 90 7 0.06 4.547563625132639 11.855584231928995 15.177907792294135 1 0 -1
4581 509 9 0.155 6.303112524443249 11.557066895703779 19.758413572070463 -3 4 -1
5448 606 3 -0.335 6.679590044040315 9.363532833820166 19.831381227106263 1 0 3
1789 199 7 0.06 0.8753133850769284 9.011746593675078 18.258270284501215 -1 2 0
937 105 1 -0.18 10.47430780512903 8.82579145399063 20.13546554706379 -1 0 -1
5737 638 4 0.06 0.6981745825192971 9.183448431976036 12.697051533291816 4 0 -1
5734 638 1 -0.18 0.9401373443864689 9.782017688934085 11.874388442152515 4 0 -1
2793 311 3 -0.335 9.249525347978174 8.128484670269284 15.34747079471168 1 2 0
2358 262 9 0.155 11.036348505344582 12.244305994252764 14.424842114630437 -2 3 -1
4578 509 6 0.06 5.964658879247861 11.417870410589234 21.919304687519535 -3 4 -1
1594 178 1 -0.18 9.386487569724979 11.881649252572931 16.37792371523748 0 2 0
1786 199 4 0.06 2.064617692709395 10.19723632372265 16.34135637692118 -1 2 0
4580 509 8 0.06 3.8334218957724486 12.482156195062064 20.80862518140647 -3 4 -1
6448 717 4 0.06 9.173502741279714 5.07939666800141 22.28222257869294 2 -3 0
810 90 9 0.155 6.51725294885691 10.38095270558956 13.015314711263608 1 0 -1
805 90 4 0.06 6.8978914811638345 9.941148134205102 15.28493946389813 1 0 -1
5738 638 5 0.06 2.0020242478137007 9.841681040098404 11.774058061528738 4 0 -1
273 31 3 -0.335 0.22524668284616578 12.667818998012589 19.65818406099739 -3 2 0
5091 566 6 0.06 11.278118344237676 3.3524782088556964 19.540407779786655 1 0 2
934 104 7 0.06 1.8997748575142983 4.453583065407142 29.25441287902601 1 -1 3
4984 554 7 0.06 2.4032093459413457 9.133525090880461 22.962187564318054 2 0 -1
929 104 2 0.06 0.9183517399566861 4.8863267965117405 28.994149712934707 1 -1 3
548 61 8 0.06 11.073132875405037 0.4756739746396084 30.73952062820689 -2 5 -1
2172 242 3 -0.335 6.122004878069406 0.5963615434390273 28.083995302784853 1 1 -1
6452 717 8 0.06 7.965521779366151 5.331239129363672 24.283145000242822 2 -3 0
3731 415 5 0.06 0.9279161816614176 11.718931917956134 29.001720847316374 1 3 0
421 47 7 0.06 3.7541055575133813 6.5197079649530085 25.40546515813161 0 3 1
5334 593 6 0.06 6.030982159219735 2.9133842994211974 32.00441896027179 -2 1 -2
417 47 3 -0.335 4.802818488337907 4.364233991337858 25.03719597070299 0 3 1
4264 474 7 0.06 2.991762622354582 13.579458572399211 25.354475459183888 0 3 1
1435 160 4 0.06 7.6111957341942125 5.845484003924327 28.009500247191202 1 1 3
420 47 6 0.06 2.6059956222466103 6.735509031091087 23.217456059615497 0 3 1
5329 593 1 -0.18 5.851011144919446 3.803093101458811 32.56591713962217 -2 1 -2
935 104 8 0.06 0.6673804487709458 5.710395967740766 29.677897907198435 1 -1 3
5333 593 5 0.06 4.827059109833116 3.92154025447114 32.502084343290605 -2 1 -2
1436 160 5 0.06 8.867492885253903 4.897772682699318 29.030297538095976 1 1 3
416 47 2 0.06 4.246091903571798 5.986873720438442 24.539268850111775 0 3 1
1432 160 1 -0.18 7.726076211037632 5.144479355257461 28.850013679300375 1 1 3
1861 207 7 0.06 9.645039139785618 1.3235219586918796 24.97277781711099 0 -1 2
1437 160 6 0.06 7.408068089791323 5.659442963122581 29.76968402296066 1 1 3
1433 160 2 0.06 6.777613620412801 3.9736466523492835 28.62106247753921 1 1 3
3674 409 2 0.06 10.327708278586293 12.318959228768417 31.283510126729954 0 1 -1
422 47 8 0.06 4.999022162214612 6.667914616327832 24.27860052915902 0 3 1
1439 160 8 0.06 7.031475471757027 3.3078531552759345 27.747143586341664 1 1 3
1438 160 7 0.06 6.878501505461672 3.3803925295551958 29.600856320686944 1 1 3
1434 160 3 -0.335 5.121040140972802 4.5425863579207855 28.513034525942818 1 1 3
930 104 3 -0.335 1.0257106296530183 5.615605306559547 27.29933053078851 1 -1 3
1440 160 9 0.155 5.020655146919229 5.195970908596753 27.38109789653937 1 1 3
936 104 9 0.155 1.2046931991376804 4.550313167056572 26.563653469526905 1 -1 3
1969 219 7 0.06 4.1260091974062085 6.398868763649936 32.39972429204278 -1 0 -3
423 47 9 0.155 3.6496641749176386 3.8641616566624255 25.21241019156804 0 3 1
3673 409 1 -0.18 10.827682091469988 12.252448318075968 32.77345894310571 0 1 -1
1971 219 9 0.155 4.104657304709994 6.478379335715407 29.71002372084459 -1 0 -3
2834 315 8 0.06 8.348086246586607 9.530615669344446 27.44848085087731 1 2 2
3727 415 1 -0.18 1.4913680680172146 10.814905101314334 29.358209447384738 1 3 0
1009 113 1 -0.18 2.062028358634815 0.6850503299300187 26.695293424157214 -2 1 1
1862 207 8 0.06 8.18188112262132 0.5605395853129884 25.56103176848792 0 -1 2
3678 409 6 0.06 10.476770853469898 11.498634458582076 33.360816501945735 0 1 -1
6453 717 9 0.155 9.916114044331668 7.861418694718684 24.157243959166696 2 -3 0
6477 720 6 0.06 0.47273732774943095 7.5843395339388575 32.94341430519255 4 0 1
3163 352 4 0.06 11.161742767173314 5.238653887901038 31.341247861066297 3 1 -1
6447 717 3 -0.335 8.699119823579682 7.4421178496533935 24.405812872461855 2 -3 0
2835 315 9 0.155 9.921849963915589 7.839795019036242 27.090940840606322 1 2 2
415 47 1 -0.18 3.1877444719730903 5.833404074929815 23.466625486400613 0 3 1
543 61 3 -0.335 8.64374599684593 0.36432981220257904 31.220140814797965 -2 5 -1
3732 415 6 0.06 2.5627319763064462 10.834398964979128 29.15208912546003 1 3 0
1012 113 4 0.06 3.081185330940745 0.7918178090734141 27.13486738391533 -2 1 1
542 61 2 0.06 10.12238377961593 0.568266139761215 30.237619968341818 -2 5 -1
3676 409 4 0.06 10.66537881670978 13.184516957579696 33.28098348788633 0 1 -1
1857 207 3 -0.335 8.331409442148715 0.5271511809367333 23.10495026142256 0 -1 2
6040 672 1 -0.18 8.737361319481716 14.98199432500445 28.132532514155827 2 3 -3
3730 415 4 0.06 1.4411419828516578 10.889651532911266 30.425241781818336 1 3 0
5957 662 8 0.06 5.493000109232206 9.413787389772214 27.93527802896035 5 -1 1
1013 113 5 0.06 1.3646514002531624 1.425857742606926 27.053409309366405 -2 1 1
1014 113 6 0.06 2.021725416725643 0.8561251237066748 25.59399135871445 -2 1 1
5954 662 5 0.06 4.971245735018602 12.10518482590642 26.63627609934427 5 -1 1
6451 717 7 0.06 9.379229815491819 5.479472475873578 25.28728042827686 2 -3 0
192 22 3 -0.335 2.1578946453767838 3.409218312451146 32.428871423795556 -1 2 0
6449 717 5 0.06 9.842785062240509 4.011604306390874 23.36508113397341 2 -3 0
2831 315 5 0.06 7.188266870851028 10.131784081875454 29.687341868696855 1 2 2
418 47 4 0.06 2.4674566900319523 5.0144500421406715 23.71041034677003 0 3 1
5952 662 3 -0.335 5.120973785116838 9.642969379376922 25.516180937687448 5 -1 1
2902 323 4 0.06 10.260861370370156 10.991009864566779 25.907387690017423 2 3 1
2829 315 3 -0.335 9.802197718122525 7.910210827987837 28.42143704306068 1 2 2
1964 219 2 0.06 4.227834536606306 7.376489412928524 31.910434226696324 -1 0 -3
5332 593 4 0.06 6.395879571189183 4.596250139476328 32.015016184644196 -2 1 -2
5951 662 2 0.06 4.9017170530840275 10.074841246705896 27.298399420656942 5 -1 1
4981 554 4 0.06 2.1877028018051377 11.010291549480693 24.837532894607754 2 0 -1
6446 717 2 0.06 8.869411951307436 5.67786847712801 24.32684110062086 2 -3 0
2828 315 2 0.06 8.81813344643216 9.448716340258061 28.451440346562304 1 2 2
1965 219 3 -0.335 3.2898975357354305 7.305389352234908 30.341349354517877 -1 0 -3
2173 242 4 0.06 3.7950024455075355 0.3241328074627372 30.436117064556928 1 1 -1
4982 554 5 0.06 1.8307825491753522 12.120395654762499 23.586633008093973 2 0 -1
2827 315 1 -0.18 7.856319134919284 9.230249658048633 29.666997497689415 1 2 2
6445 717 1 -0.18 9.714441853506381 5.07204504121473 23.24372996487149 2 -3 0
2833 315 7 0.06 9.561381282135322 10.250965344553675 28.607810818868906 1 2 2
6047 672 8 0.06 10.019817261188262 14.068240900462671 26.770900989935786 2 3 -3
4986 554 9 0.155 0.3618445160285605 8.763607515009067 24.09820902155786 2 0 -1
3680 409 8 0.06 10.905930151603982 13.091318028573452 30.75887565540437 0 1 -1
4978 554 1 -0.18 2.3506302101124907 11.215356145863248 23.781515365847252 2 0 -1
2830 315 4 0.06 7.3409595945839285 8.321449351331257 29.414972670591954 1 2 2
1970 219 8 0.06 5.28117376429026 7.512309825260407 31.719253016840153 -1 0 -3
4259 474 2 0.06 3.04057035324909 14.599665080109835 25.411590899576847 0 3 1
3681 409 9 0.155 8.430532821867162 13.07645032027925 32.252160299351786 0 1 -1
1372 153 4 0.06 2.32367548451694 0.2078076782333389 22.844820210661776 2 -3 -2
547 61 7 0.06 10.177128573448055 1.601968384647523 29.831036706670986 -2 5 -1
6476 720 5 0.06 0.5516772072021622 8.785306182259887 31.600936263185776 4 0 1
2906 323 8 0.06 10.183866145191246 10.07700154862594 23.534870999976203 2 3 1
684 76 9 0.155 3.0302346033539838 12.163018050949418 32.69285578745084 0 -2 3
549 61 9 0.155 8.858130721340451 1.3214154074429925 32.15491467678157 -2 5 -1
2899 323 1 -0.18 10.89393198746606 11.38073080024581 25.128708012762587 2 3 1
6041 672 2 0.06 8.99708944584478 14.29902414027545 26.758299591344098 2 3 -3
3675 409 3 -0.335 8.56270752304469 12.365661200129702 31.14055393128785 0 1 -1
198 22 9 0.155 1.2240838146824697 3.210550455826074 31.482358913133456 -1 2 0
6046 672 7 0.06 8.450360229071892 13.397427588039076 26.584809203313757 2 3 -3
4979 554 2 0.06 1.8475790181231169 10.069483188984739 22.846672953131765 2 0 -1
1963 219 1 -0.18 3.7212676999210164 8.554132318174657 32.785331083139994 -1 0 -3
1967 219 5 0.06 3.9039326534545484 9.472017631503364 32.20479561729826 -1 0 -3
1966 219 4 0.06 2.7031987144473937 8.402021033484347 32.95778822300635 -1 0 -3
4983 554 6 0.06 3.3324873525610363 11.372019431246228 23.43384574145771 2 0 -1
4265 474 8 0.06 2.4644842901738335 14.81551308758256 26.26039963083107 0 3 1
682 76 7 0.06 5.180398829156535 13.695304914141047 31.521680051797208 0 -2 3