LAMMPS data file via write_data, version 29 Aug 2024, timestep = 1000000, units = real

6144 atoms
12 atom types
5632 bonds
11 bond types
9728 angles
19 angle types
10752 dihedrals
21 dihedral types
3072 impropers
6 improper types

2.561440444665223 42.43855955531818 xlo xhi
2.561440444665223 42.43855955531818 ylo yhi
2.561440444665223 42.43855955531818 zlo zhi

Masses

1 12.011
2 12.011
3 12.011
4 15.999
5 1.008
6 1.008
7 1.008
8 1.008
9 1.008
10 1.008
11 1.008
12 1.008

Pair Coeffs # lj/cut/coul/long

1 0.066 3.5
2 0.066 3.5
3 0.066 3.5
4 0.17 3.12
5 0.03 2.5
6 0.03 2.5
7 0.03 2.5
8 0.03 2.5
9 0.03 2.5
10 0.03 2.5
11 0.03 2.5
12 0 0

Bond Coeffs # harmonic

1 268 1.529
2 268 1.529
3 320 1.41
4 340 1.09
5 340 1.09
6 340 1.09
7 340 1.09
8 340 1.09
9 340 1.09
10 340 1.09
11 553 0.945

Angle Coeffs # harmonic

1 58.35 112.7
2 50 109.5
3 37.5 110.7
4 37.5 110.7
5 37.5 110.7
6 37.5 110.7
7 37.5 110.7
8 37.5 110.7
9 37.5 110.7
10 55 108.5
11 33 107.8
12 33 107.8
13 35 109.5
14 33 107.8
15 33 107.8
16 35 109.5
17 37.5 110.7
18 33 107.8
19 37.5 110.7

Dihedral Coeffs # opls

1 1.711 -0.5 0.663 0
2 0 0 0.3 0
3 -0.35601 -0.174 0.492 0
4 0 0 0.3 0
5 0 0 0.468 0
6 0 0 0.3 0
7 0 0 0.3 0
8 0 0 0.468 0
9 0 0 0.3 0
10 0 0 0.3 0
11 0 0 0.3 0
12 0 0 0.3 0
13 0 0 0.45 0
14 0 0 0.3 0
15 0 0 0.45 0
16 0 0 0.3 0
17 0 0 0.3 0
18 0 0 0.3 0
19 0 0 0.3 0
20 0 0 0.3 0
21 0 0 0.3 0

Improper Coeffs # cvff

1 0 -1 2
2 0 -1 2
3 0 -1 2
4 0 -1 2
5 0 -1 2
6 0 -1 2

Atoms # full

1293 108 9 0.06 3.7847085810238585 8.599551639995582 5.401608774089704 0 0 0
4848 404 12 0.418 6.927003343416597 3.0861246270920555 3.934192045186516 0 1 1
2103 176 3 0.145 3.4052771081868825 2.9271935151917527 6.185897317963175 0 3 1
5500 459 4 -0.6830000000000001 5.820804553742732 5.7284406026801715 10.980707264223081 1 1 -1
2101 176 1 -0.18 5.173919309049565 3.255055753533963 8.069640102867588 0 3 1
5501 459 5 0.06 6.564944028184834 6.702323435571149 7.962407223784847 1 1 -1
1288 108 4 -0.6830000000000001 5.631926077400829 10.454557317341555 6.049885838398046 0 0 0
1289 108 5 0.06 4.377943410797483 6.1377034373142365 6.139581629335938 0 0 0
612 51 12 0.418 3.755958257517406 11.22464129415839 5.2420344221306525 0 1 0
4840 404 4 -0.6830000000000001 6.028362300561074 2.6479487728311106 3.854827030971983 0 1 1
1294 108 10 0.06 6.255653612712127 8.957384681144246 4.858322771648739 0 0 0
5336 445 8 0.06 3.1158552341461694 10.082959481784236 11.917230414889376 0 0 0
5334 445 6 0.06 4.560602877716848 12.248274826639864 12.399226722375777 0 0 0
5329 445 1 -0.18 4.171265669949076 11.8729693826784 11.41830278959782 0 0 0
1692 141 12 0.418 3.5949627142437524 3.2098617569647585 11.668525097032715 1 1 1
1290 108 6 0.06 5.9564698788257004 6.629272539038098 5.904796365667638 0 0 0
5333 445 5 0.06 4.933924838007289 11.194127805433752 10.875943603216037 0 0 0
1285 108 1 -0.18 4.988354416744559 6.891516311553136 5.622538025406764 0 0 0
2105 176 5 0.06 5.436741801317334 4.125564626171552 7.507902432778605 0 3 1
2110 176 10 0.06 3.828533168958151 3.7819781742790575 5.746265515519285 0 3 1
5507 459 11 0.06 4.25565539060179 7.1224494701920795 11.108101812871473 1 1 -1
2102 176 2 -0.12 3.67779431909806 2.94110254062301 7.691136857755235 0 3 1
5508 459 12 0.418 5.251824615982551 4.99971250071812 11.258928067861529 1 1 -1
1291 108 7 0.06 4.949750567071895 6.7910675726338425 4.5183733999747275 0 0 0
1286 108 2 -0.12 4.603615635207385 8.268521626801153 6.069185774600557 0 0 0
5505 459 9 0.06 6.429855962010597 8.262156059032032 10.591380306028427 1 1 -1
1416 118 12 0.418 7.328273305676831 6.257886261044641 11.816493471884211 0 0 1
1295 108 11 0.06 6.648848666969561 8.722901574063348 6.526043477160135 0 0 0
5504 459 8 0.06 5.439118663258099 8.631861393538504 9.34998995861955 1 1 -1
1296 108 12 0.418 6.417986441032337 10.910884916075647 5.871137459613276 0 0 0
1292 108 8 0.06 4.3761463833367635 8.212022456645457 7.152886367964181 0 0 0
1287 108 3 0.145 5.895903188211142 9.085055542142776 5.880989083691945 0 0 0
5330 445 2 -0.12 2.8537382827273783 11.036898181620773 11.43690398644794 0 0 0
5506 459 10 0.06 4.336208161378005 6.232899775414708 9.588031252199869 1 1 -1
5499 459 3 0.145 4.964221722819227 6.7297190443452095 10.343304810771532 1 1 -1
5498 459 2 -0.12 5.90820972662029 7.726196724963936 9.749980911572322 1 1 -1
1684 141 4 -0.6830000000000001 3.9423973339670697 3.9722448247880706 12.109033172233934 1 1 1
5497 459 1 -0.18 6.9868416844977626 7.098746862899379 8.866815214388613 1 1 -1
3430 286 10 0.06 5.266143100537878 10.453055725643328 3.080057182745816 0 -1 1
604 51 4 -0.6830000000000001 3.025300638799634 11.76841380852693 4.933548584289213 0 1 0
2108 176 8 0.06 3.1008955506469027 3.763215159856741 8.142117614629793 0 3 1
2107 176 7 0.06 5.418096525313533 3.524805006020151 9.114836835066994 0 3 1
5502 459 6 0.06 7.4968299351891 6.334772413474754 9.38963414294037 1 1 -1
4762 397 10 0.06 7.521369581893126 2.87891440007799 12.260722968076735 2 0 0
2106 176 6 0.06 5.859921546021104 2.5642804644422768 7.684277576975966 0 3 1
1411 118 7 0.06 6.502909836821051 8.409955555282128 15.864680650647697 0 0 1
1697 142 5 0.06 3.716911891935074 5.717478186788794 19.910449921620813 0 1 0
5985 499 9 0.06 2.6811269970648834 6.748053639079055 15.620884961609805 0 0 0
3309 276 9 0.06 4.355919261377784 3.8303237007761797 15.834521563335706 1 -1 0
3305 276 5 0.06 5.74207941933303 4.881606672893117 17.358499989915057 1 -1 0
4564 381 4 -0.6830000000000001 5.732744093658095 12.10472101594002 18.45247824242129 1 1 0
4565 381 5 0.06 4.134639807648016 8.40565853711974 17.72967199977436 1 1 0
4571 381 11 0.06 7.053034804995035 11.004361396736657 19.268476391392046 1 1 0
1406 118 2 -0.12 6.599154057040593 6.7572357292678795 14.413349999731082 0 0 1
4569 381 9 0.06 4.679226421222112 9.988737561241855 19.736919669029778 1 1 0
4570 381 10 0.06 6.779751671375295 10.63427412607338 17.505384060520107 1 1 0
1699 142 7 0.06 3.3595317597662264 7.460338848148086 19.93648067241115 0 1 0
3303 276 3 0.145 2.723894818300333 3.1556388981246672 17.176194029236537 1 -1 0
1698 142 6 0.06 3.404678235993647 6.441036054522396 21.34893600555196 0 1 0
3311 276 11 0.06 2.6393684984062116 2.7795191985782277 18.15731883189741 1 -1 0
2325 194 9 0.06 6.629767807531038 10.726547114225687 13.345124827000337 1 -1 1
4568 381 8 0.06 5.77683468951809 8.827697414896132 19.227213794445493 1 1 0
4572 381 12 0.418 4.893358713820387 11.973335660495806 18.106690758157697 1 1 0
1693 142 1 -0.18 3.080199316193847 6.480329499132109 20.343361563192428 0 1 0
3302 276 2 -0.12 4.261103314105033 3.467600612571215 16.87667560290621 1 -1 0
4754 397 2 -0.12 7.254609467197111 3.144993969199637 14.335362365940625 2 0 0
4567 381 7 0.06 3.293782209414605 9.831611389545532 18.195035624661752 1 1 0
4566 381 6 0.06 4.54332075202127 9.953169162512037 16.96349464870628 1 1 0
4563 381 3 0.145 6.356502783477151 10.838236132774332 18.53899924300573 1 1 0
3307 276 7 0.06 4.242928186290019 5.55599143209013 17.531193573924533 1 -1 0
1409 118 5 0.06 5.058850117696515 7.273972375919988 15.738441363865585 0 0 1
4561 381 1 -0.18 4.2445470108711625 9.44725664215378 17.85290748023793 1 1 0
3301 276 1 -0.18 4.794790739940995 4.610905416600446 17.70703812618313 1 -1 0
1691 141 11 0.06 3.264932702772298 5.026504338814702 13.813555558383008 1 1 1
1412 118 8 0.06 5.8371637407474335 6.095754052863082 14.064704451375599 0 0 1
3306 276 6 0.06 4.902058580441105 4.353703750130196 18.772309021653104 1 -1 0
2318 194 2 -0.12 7.447796208900637 11.394438625749912 13.558810495289297 1 -1 1
4562 381 2 -0.12 5.337517419284591 9.747464951003224 18.91559856837395 1 1 0
1375 115 7 0.06 3.761905149573169 11.743396359612843 21.133487971597773 -1 -1 -2
1405 118 1 -0.18 5.863343935882986 7.791182452160288 15.172341401996723 0 0 1
1683 141 3 0.145 3.161296155960414 4.078832647116208 13.262233757809478 1 1 1
2324 194 8 0.06 7.00485275209707 12.018167243747497 14.358736928345046 1 -1 1
5987 499 11 0.06 2.951419319454208 8.817835216874638 14.232639881789353 0 0 0
5986 499 10 0.06 2.7958065964559045 7.470664573688024 13.148324801547405 0 0 0
1413 118 9 0.06 7.256168341281326 6.330608914684301 15.228554712145879 0 0 1
1690 141 10 0.06 3.3527527001927435 3.2776759549708463 13.923441167181789 1 1 1
1415 118 11 0.06 6.714924544213244 8.090297770995043 12.748607047281054 0 0 1
1410 118 6 0.06 5.345469910654542 8.49222419042207 14.480477629036876 0 0 1
2708 226 8 0.06 3.2177209978388865 11.680739671956784 16.830886757459233 0 0 2
1593 133 9 0.06 5.468340847573307 3.2049180930727683 20.799529815740247 -1 0 2
4760 397 8 0.06 6.865509283596907 4.151556794507984 14.305681199792817 2 0 0
1369 115 1 -0.18 2.8024368782359392 12.063656146623911 21.500550702267624 -1 -1 -2
4758 397 6 0.06 7.206125203249561 3.1394210339821917 16.521124641478174 2 0 0
1407 118 3 0.145 7.37404698383364 7.384926949487702 13.28653090236518 0 0 1
1592 133 8 0.06 4.0363713209708765 2.612866503291322 20.033644682426075 -1 0 2
2702 226 2 -0.12 2.568619711943348 12.463523622360059 17.228852523502624 0 0 2
4761 397 9 0.06 6.344427134664038 2.572559018478389 14.267495055004597 2 0 0
1594 133 10 0.06 3.7319069243115774 3.322847917862953 22.49391112232081 -1 0 2
3925 328 1 -0.18 4.02036227482838 4.620940959069232 29.31332903707345 0 1 0
985 83 1 -0.18 6.1288959616397385 10.46831318459347 30.800874739314036 1 1 -1
3807 318 3 0.145 5.039979160020886 8.79720250831673 23.427477446368894 2 1 1
5162 431 2 -0.12 2.8730384815896364 9.911447386946254 27.191472698927303 1 2 2
992 83 8 0.06 4.803813054777038 10.941952161591358 29.20973101003528 1 1 -1
991 83 7 0.06 6.8803150783981355 10.92864725904462 31.408695517897204 1 1 -1
2292 191 12 0.418 5.652000936820921 11.06925351779686 25.4335709670668 -1 0 0
785 66 5 0.06 5.625907701795799 3.6994154236537806 26.39418902821736 2 0 -1
2284 191 4 -0.6830000000000001 6.4773353497869826 11.481802204730787 25.820613363089493 -1 0 0
3808 318 4 -0.6830000000000001 4.6022095313305496 10.10361117979281 23.686163228057865 2 1 1
3805 318 1 -0.18 5.4376054093236394 6.525435399211748 24.676353055599648 2 1 1
3930 328 6 0.06 3.6497476985320034 5.496372376857401 29.9463629263303 0 1 0
990 83 6 0.06 5.374168597191774 10.070544021186226 31.445822461171474 1 1 -1
3931 328 7 0.06 5.00987544358685 4.7354885004467535 29.09028306490057 0 1 0
3815 318 11 0.06 6.007924943996647 8.753202087877552 22.94470573413327 2 1 1
987 83 3 0.145 4.650157045492312 12.476182731782574 30.56502031531283 1 1 -1
3816 318 12 0.418 3.660541990888053 10.016001783722368 23.954702547739487 2 1 1
3929 328 5 0.06 3.990968748900709 3.7253501878842923 29.90471701820609 0 1 0
3813 318 9 0.06 3.8872951560217577 7.946613161290835 24.955372244982517 2 1 1
781 66 1 -0.18 5.680229360743227 2.6474451467580495 26.077759293518458 2 0 -1
986 83 2 -0.12 5.5252467982774505 11.45957080076644 29.83924092243119 1 1 -1
993 83 9 0.06 6.232764430717414 11.959828851661143 29.230284886235747 1 1 -1
5170 431 10 0.06 2.991613377125307 11.551957931005132 25.639003574487248 1 2 2
3811 318 7 0.06 5.552934173060466 6.134724275429868 25.71420012930981 2 1 1
3812 318 8 0.06 5.3243099445025726 8.486292082852064 25.634229527129513 2 1 1
2899 242 7 0.06 5.227536042670575 3.415559520154164 31.591240826362203 1 0 -2
3926 328 2 -0.12 3.0200502630297916 4.338123254516492 28.164507382206054 0 1 0
5169 431 9 0.06 2.653783849997247 10.678770665750372 27.916726348266476 1 2 2
995 83 11 0.06 3.8885356584915365 11.946715891013556 31.185876798439732 1 1 -1
3810 318 6 0.06 4.747733231763245 5.8828331586162115 24.10589944491024 2 1 1
187 16 7 0.06 4.317461650137257 5.346812267629709 32.227876870305536 1 1 1
3933 328 9 0.06 2.983547801482387 5.2582995238566514 27.56147186565818 0 1 0
3806 318 2 -0.12 4.939749481485126 7.966349773049684 24.738895927913582 2 1 1
2290 191 10 0.06 7.018403070689536 10.76134806202887 24.014516421957556 -1 0 0
3809 318 5 0.06 6.402157643499513 6.485409142112754 24.188225253915128 2 1 1
3932 328 8 0.06 3.3049116774157357 3.4423478354981656 27.604663927277894 0 1 0
186 16 6 0.06 3.226003818261634 6.860555167349403 32.2082014962383 1 1 1
2283 191 3 0.145 7.397133995306847 11.431253826224806 24.799574931410962 -1 0 0
989 83 5 0.06 6.588039128936413 9.592425754019722 30.29127406378571 1 1 -1
5168 431 8 0.06 3.9187878780239083 9.61050562465849 26.992974870801945 1 2 2
1374 115 6 0.06 2.8301570729243877 11.924340931306427 22.609918390063452 -1 -1 -2
2893 242 1 -0.18 5.928249428404027 2.744994109806399 32.07254162793987 1 0 -2
3814 318 10 0.06 4.252929284385397 8.608906484946937 22.68057374203496 2 1 1
2900 242 8 0.06 7.39359997378108 4.052645868828224 31.32483142745618 1 0 -2
791 66 11 0.06 6.253252121017352 2.995897849401494 28.790516490678865 2 0 -1
2291 191 11 0.06 7.3828036284558065 12.37430020927081 24.288078201775548 -1 0 0
2894 242 2 -0.12 7.373107052519436 3.115549203775547 31.841443628742354 1 0 -2
185 16 5 0.06 3.9940253568254676 6.368810564658308 33.73263344957715 1 1 1
1836 153 12 0.418 3.439956136271789 7.9130226562018 37.61631773079847 0 1 0
937 79 1 -0.18 7.417247078761806 7.830624386724631 34.22082826371522 1 -1 -1
181 16 1 -0.18 3.552994645851906 5.946883799211756 32.783854154362785 1 1 1
3428 286 8 0.06 4.53743046513784 10.43099331827472 40.51616271654962 0 -1 0
1834 153 10 0.06 3.267352107268565 10.304526165081505 37.411782055176914 0 1 0
22 2 10 0.06 6.273017874685651 11.632589556023431 36.583509610495845 -1 0 -1
1297 109 1 -0.18 3.5370636657051064 4.927055390635738 41.09875775408886 2 0 0
3580 299 4 -0.6830000000000001 4.8698605419174985 6.953986097574753 37.30763788534824 -1 0 -2
3423 286 3 0.145 5.91766652640493 10.054025473216198 42.14946462544349 0 -1 0
3429 286 9 0.06 5.749907208541444 11.620198741047252 40.6359063730095 0 -1 0
3586 299 10 0.06 3.94475869657884 5.664588329105126 36.0545912161617 -1 0 -2
3587 299 11 0.06 5.634290281920908 5.639304294424916 35.97063384542357 -1 0 -2
3585 299 9 0.06 4.061594264724626 4.377185464256888 38.22056281421417 -1 0 -2
3577 299 1 -0.18 5.360023239407756 3.3021212589450823 36.94680294646813 -1 0 -2
3426 286 6 0.06 6.413848886251094 8.833028744140112 39.366354469479695 0 -1 0
3579 299 3 0.145 4.881284436971679 5.697013427136993 36.665861862840956 -1 0 -2
3432 286 12 0.418 6.220793960481125 8.269334615527866 41.29870519406434 0 -1 0
3583 299 7 0.06 6.356097492260166 3.4281837231397234 36.41075087411197 -1 0 -2
19 2 7 0.06 5.0604980225469545 11.861101208735695 34.258431495380364 -1 0 -1
3584 299 8 0.06 5.761339794221293 4.80804825785326 38.45685198828028 -1 0 -2
3425 286 5 0.06 6.003800472178305 10.311832916514419 38.64958980518197 0 -1 0
943 79 7 0.06 6.996855367155866 6.91692244846777 34.6618529642617 1 -1 -1
3421 286 1 -0.18 6.400825885040255 9.873614586231371 39.55874727865604 0 -1 0
3578 299 2 -0.12 4.983507430370668 4.572504167315295 37.665221038793945 -1 0 -2
3427 286 7 0.06 7.483177117769109 10.100957408985842 39.726202944669794 0 -1 0
3581 299 5 0.06 4.660421809328634 3.1452071938170256 36.17366026584656 -1 0 -2
1301 109 5 0.06 4.422161329654381 5.473810905850503 41.26939567889242 2 0 0
1166 98 2 -0.12 7.337144891496929 5.939750054997951 40.8399796281108 1 0 -1
3588 299 12 0.418 5.731137383737705 7.349585223657745 37.27974246839454 -1 0 -2
1302 109 6 0.06 3.9710964264473865 4.056062492770493 40.576163995730084 2 0 0
1306 109 10 0.06 3.4310024712012575 7.904801996703685 41.17716969222664 2 0 0
3422 286 2 -0.12 5.567890154465255 10.551182153033263 40.70553512560629 0 -1 0
1303 109 7 0.06 3.045049032651629 4.606876599885107 42.02097641080628 2 0 0
1173 98 9 0.06 6.52731773732757 6.341972334609865 40.24686771649184 1 0 -1
1298 109 2 -0.12 2.686643273917621 5.877497880126743 40.32412026256399 2 0 0
938 79 2 -0.12 7.2849439194730055 8.98586405854294 35.23731984283334 1 -1 -1
944 79 8 0.06 6.240777873194785 9.059145300453835 35.40132517407853 1 -1 -1
3424 286 4 -0.6830000000000001 5.7749939410067705 8.586708541228404 42.09251157993839 0 -1 0
1305 109 9 0.06 3.055357030688264 6.096798573129428 39.375810934923294 2 0 0
1172 98 8 0.06 6.980942416854336 5.78041067579643 41.8592893712417 1 0 -1
1835 153 11 0.06 2.617711196171452 9.548194138993498 35.92354145038873 0 1 0
2897 242 5 0.06 5.7603674867648795 2.6337947893023057 33.159229565539256 1 0 -2
942 79 6 0.06 6.849387239076161 7.8878037025606 33.276599846470674 1 -1 -1
191 16 11 0.06 3.282930210030069 3.1697999707295486 33.71810887869673 1 1 1
1170 98 6 0.06 6.894262817114994 3.897798474117599 40.8170425174414 1 0 -1
3431 286 11 0.06 6.944548984314526 10.269975422187697 42.42665341977812 0 -1 0
190 16 10 0.06 2.5755873187900873 3.9552227479188478 35.139936121017485 1 1 1
945 79 9 0.06 7.5200348845374165 9.899834641910875 34.76599711589592 1 -1 -1
1299 109 3 0.145 2.5828412414672153 7.280168516751239 41.03153235859136 2 0 0
5941 496 1 -0.18 6.31612413471969 21.439307935413346 3.9354647912951535 0 0 2
5640 470 12 0.418 2.6048444253399032 17.848152804963952 7.81669816405398 2 1 0
5638 470 10 0.06 4.649898306073948 18.134863396756813 8.57855686680954 2 1 0
5636 470 8 0.06 4.998595889362706 19.74288664275582 10.398526487089299 2 1 0
5637 470 9 0.06 3.398144222224822 20.184578846117308 10.309583335767973 2 1 0
705 59 9 0.06 6.088639616918904 14.550203840866711 7.237850686484235 -1 0 1
5473 457 1 -0.18 7.100717510708387 15.419157599309138 10.92192496504153 1 2 0
2574 215 6 0.06 6.228229656305587 16.2863838297855 3.5003496954219697 0 1 0
5480 457 8 0.06 6.586702841846135 17.26778161253626 11.672212339531429 1 2 0
5335 445 7 0.06 3.9781511177504854 12.723687691696224 10.780387625496644 0 0 0
2326 194 10 0.06 7.002895103908156 12.843067147566478 11.807182169667788 1 -1 1
4748 396 8 0.06 3.4643835816010724 16.937626866165452 4.2674314996607 -1 0 1
2987 249 11 0.06 3.4563337906030482 14.041195452769262 8.325281885207033 1 -1 1
4749 396 9 0.06 2.8606952448800356 15.180726810782033 4.556681921162409 -1 0 1
703 59 7 0.06 7.061883564614891 14.331771999514014 4.689005220636544 -1 0 1
3551 296 11 0.06 6.8072007632821725 19.807519952954138 8.543228078017146 0 2 1
698 59 2 -0.12 6.582162452264827 13.621882153550583 6.730277125101844 -1 0 1
311 26 11 0.06 3.3210433821963816 22.013988058859923 6.18200906070241 -1 1 0
5632 470 4 -0.6830000000000001 2.6897150753344046 18.780086296761088 8.154840202035839 2 1 0
5631 470 3 0.145 4.040705909092643 19.034123405416313 8.570767757485825 2 1 0
5634 470 6 0.06 3.6761630969523003 17.129099162667387 10.377873710896798 2 1 0
704 59 8 0.06 6.095417982030357 12.792826623644508 7.178880195723315 -1 0 1
3542 296 2 -0.12 7.085337545700791 21.741228162514197 9.183790080960943 0 2 1
2569 215 1 -0.18 6.4575212736434455 17.173469857567774 4.121691662754631 0 1 0
2573 215 5 0.06 5.963301095769609 16.950515530405497 5.078274007925556 0 1 0
2575 215 7 0.06 5.946962792057757 18.113279064164658 3.74738899806089 0 1 0
5630 470 2 -0.12 4.047086505315816 19.334299959847794 10.074142086663226 2 1 0
5639 470 11 0.06 4.472507183580848 19.846713457140392 7.983269857045046 2 1 0
5629 470 1 -0.18 3.58443065996197 18.12075583315675 10.871313977329017 2 1 0
697 59 1 -0.18 6.414253106212742 13.66678483347974 5.235907190871157 -1 0 1
5633 470 5 0.06 3.9103875712108893 18.065269605714754 11.934888179762181 2 1 0
701 59 5 0.06 5.375728369370825 13.81057900161828 5.013361406876422 -1 0 1
5478 457 6 0.06 6.927177643818996 15.90284252158809 9.888786781236911 1 2 0
702 59 6 0.06 6.481262017397803 12.77660599365836 4.713598630820089 -1 0 1
5479 457 7 0.06 6.20480914453282 14.94019096393612 11.316308370206636 1 2 0
5474 457 2 -0.12 7.464636588942496 16.59978220835329 11.809124539865541 1 2 0
5945 496 5 0.06 5.837274811743766 21.55141101893374 2.9475586403208363 0 0 2
3546 296 6 0.06 5.660666517177832 22.10161546777352 7.573499607068964 0 2 1
3548 296 8 0.06 6.345628213557426 21.57835856657729 9.980288422784149 0 2 1
5947 496 7 0.06 6.209660243077188 20.412927529174574 4.2758715608058075 0 0 2
5946 496 6 0.06 5.871780935428918 22.06571904870789 4.6648155919333005 0 0 2
954 80 6 0.06 2.57620466794355 15.934734647478336 11.799630192644749 1 -2 2
2704 226 4 -0.6830000000000001 3.7079928282804477 14.101791328976555 15.942257054986058 0 0 2
2235 187 3 0.145 6.933743528369676 14.338563632365977 21.33104016095544 1 -1 0
953 80 5 0.06 2.7604251439007363 16.80189897835382 13.277863656874963 1 -2 2
3595 300 7 0.06 4.906829860186874 22.283099169324544 16.75199748405238 1 1 0
2242 187 10 0.06 6.160428757239182 13.797596351602696 20.80665018132637 1 -1 0
2267 189 11 0.06 3.998872242872082 21.156154761243297 13.613594531664539 0 -1 -1
3524 294 8 0.06 5.221709474948122 19.403145535878537 15.909763873703204 1 -1 -1
3521 294 5 0.06 3.2203702867690933 17.24929249830305 16.906664954513108 1 -1 -1
1657 139 1 -0.18 2.628963594631072 17.810609699224536 20.261264342083837 0 0 -1
780 65 12 0.418 6.7070996748400695 13.624896426505176 18.152515697530635 1 -2 0
3598 300 10 0.06 3.758788561162657 20.85473888947214 20.14610965481891 1 1 0
772 65 4 -0.6830000000000001 7.194391993508797 14.433943730713988 18.020393554238414 1 -2 0
2710 226 10 0.06 3.9472194859151237 14.060168432189743 17.874795927722694 0 0 2
2712 226 12 0.418 4.152948815874847 14.928495133316783 15.962660402174915 0 0 2
2236 187 4 -0.6830000000000001 7.261743380466514 15.476466024414421 20.590800968905643 1 -1 0
3520 294 4 -0.6830000000000001 5.609208991295242 16.11198516991741 16.35025605593821 1 -1 -1
1667 139 11 0.06 5.589138076710382 17.841452506075342 22.038690876181363 0 0 -1
3518 294 2 -0.12 4.901348298995558 18.36237010837135 15.912211288662155 1 -1 -1
3519 294 3 0.145 6.012305281126201 17.534779529898735 16.52637973174008 1 -1 -1
2259 189 3 0.145 3.2540969296835414 21.928841627500436 13.839467182620963 0 -1 -1
5482 457 10 0.06 6.564761704326519 16.05993244923076 13.81022871392297 1 2 0
3522 294 6 0.06 2.8050620770761183 18.805442558329464 16.32645170932624 1 -1 -1
1659 139 3 0.145 4.529322785454319 17.992291616967336 22.07072262973909 0 0 -1
3528 294 12 0.418 6.329496159943489 15.569285035615527 16.74153473889737 1 -1 -1
3593 300 5 0.06 3.238625374765948 21.948662025971483 16.8781814475985 1 1 0
1377 115 9 0.06 3.2072159715303266 14.206977304380759 21.446265749138743 -1 -1 -2
1658 139 2 -0.12 3.9792220814383565 17.344339676674004 20.768599440104 0 0 -1
5255 438 11 0.06 7.335474905692255 19.756380897416538 17.822972566454858 2 1 1
3517 294 1 -0.18 3.6016172001993776 18.257897133910838 16.774602928429374 1 -1 -1
2244 187 12 0.418 7.3685707148698 15.130037963736495 19.711262631684665 1 -1 0
5253 438 9 0.06 7.039305202227334 20.168762468478608 20.384276221077815 2 1 1
3523 294 7 0.06 3.6706823739896826 18.646237517888824 17.83190287986324 1 -1 -1
1665 139 9 0.06 3.886300254957315 16.271083080036416 20.875178852916758 0 0 -1
1666 139 10 0.06 4.38201402543715 19.078248898565416 22.12252265270517 0 0 -1
3526 294 10 0.06 6.103474982375609 17.608845808207967 17.60958215995943 1 -1 -1
3589 300 1 -0.18 4.184222275690942 21.794932854494043 17.39061198459195 1 1 0
1664 139 8 0.06 4.729035723657075 17.617674453883474 19.980440742416764 0 0 -1
3590 300 2 -0.12 4.372239142993376 22.458800002730626 18.715030488804743 1 1 0
5924 494 8 0.06 7.260479712719082 20.829552441983925 14.523377249854521 1 0 1
3525 294 9 0.06 4.668315244585191 18.110230945080033 14.878482590373064 1 -1 -1
3600 300 12 0.418 3.646811376124966 22.27046503143566 21.894993230546845 1 1 0
3594 300 6 0.06 4.392112390870752 20.721843300009386 17.378869470175395 1 1 0
3527 294 11 0.06 6.9650233076281864 17.800953001886064 16.076878750701777 1 -1 -1
5251 438 7 0.06 7.368257516017636 17.847395379874605 19.895003421861503 2 1 1
2703 226 3 0.145 3.131991347974445 13.881393209316881 17.18215542337192 0 0 2
3591 300 3 0.145 3.5930597184559057 21.893155184462255 19.951983323762448 1 1 0
2258 189 2 -0.12 2.6312059419167872 22.30739308010841 12.543302634259772 0 -1 -1
1662 139 6 0.06 2.6243064360471253 18.889647960885963 20.095048793929053 0 0 -1
5254 438 10 0.06 7.507929198394165 21.344170635510253 18.390067985603057 2 1 1
3597 300 9 0.06 5.411252390332496 22.293394271170484 18.927132311663744 1 1 0
2239 187 7 0.06 6.805653199245085 15.827423406159454 24.515087265062505 1 -1 0
2951 246 11 0.06 5.144732043705307 19.232397730436432 26.743095458727336 1 -1 2
1660 139 4 -0.6830000000000001 3.902375867759904 17.484772679231018 23.22099869023468 0 0 -1
2949 246 9 0.06 5.190810064082669 21.159153805686916 24.935106327493802 1 -1 2
988 83 4 -0.6830000000000001 3.9382416525202117 13.296724622954804 29.68596951620805 1 1 -1
483 41 3 0.145 4.883663991088159 14.527523475637377 26.312000874640052 -1 0 0
2943 246 3 0.145 4.874574593520621 19.219013957584703 25.690466634093195 1 -1 2
2241 187 9 0.06 5.871061234901601 13.825674370060966 23.107343483747137 1 -1 0
2942 246 2 -0.12 5.749975843989063 20.198975274540942 24.937143004818406 1 -1 2
2948 246 8 0.06 5.857343082116327 19.948699994080293 23.86524656452345 1 -1 2
6144 512 12 0.418 3.1419527558760265 21.987918176012986 24.196001884387975 1 -1 0
2233 187 1 -0.18 7.390707968813586 15.375533225277316 23.702111160655317 1 -1 0
1053 88 9 0.06 4.5722325728923945 22.43480686681001 30.317968546667917 1 0 1
5037 420 9 0.06 5.134974442473865 17.405994290733148 30.294284867426867 2 -1 0
484 41 4 -0.6830000000000001 5.080846306215383 13.457597766780175 27.18000537216254 -1 0 0
488 41 8 0.06 3.0169127030344374 15.366131307620577 25.585224585978356 -1 0 0
2952 246 12 0.418 6.375722158018512 18.07482358764201 25.698852577739764 1 -1 2
492 41 12 0.418 5.47490467483952 12.731186573996183 26.683803792691457 -1 0 0
5031 420 3 0.145 6.531179794800998 15.677234211902155 30.476704885881173 2 -1 0
491 41 11 0.06 5.021978546634241 14.034511956685892 25.369918316160913 -1 0 0
2234 187 2 -0.12 6.411944553165274 14.729431966354177 22.71862729949201 1 -1 0
5030 420 2 -0.12 5.746227355553575 16.882371159335854 31.047390201685296 2 -1 0
5038 420 10 0.06 5.911862335895163 15.145795950521748 29.751660302289245 2 -1 0
1045 88 1 -0.18 5.027762885202408 21.85831304764518 32.35755580457855 1 0 1
994 83 10 0.06 5.235692370168177 13.184202499866393 31.270467962667862 1 1 -1
490 41 10 0.06 5.720914062803869 15.180715985678205 26.620913119896063 -1 0 0
5036 420 8 0.06 6.433012395801014 17.593942014896825 31.482197696714763 2 -1 0
1668 139 12 0.418 4.460703434534894 17.66922145135991 23.991393441829025 0 0 -1
5029 420 1 -0.18 4.799270408466271 16.45085081993787 32.20964484006623 2 -1 0
485 41 5 0.06 4.257605181248109 16.89205860179655 27.5163561189583 -1 0 0
2240 187 8 0.06 5.490363063459835 15.348062453567575 22.534099417908227 1 -1 0
2941 246 1 -0.18 7.133594428509886 20.408896280898663 25.53069303741225 1 -1 2
996 83 12 0.418 4.412840561753588 13.618673494856354 28.879785809572663 1 1 -1
2950 246 10 0.06 3.7909957997101413 19.413655721288222 25.6206930054928 1 -1 2
1054 88 10 0.06 5.957838990263856 19.749402048470934 30.42426185123489 1 0 1
2944 246 4 -0.6830000000000001 5.486845532983114 17.9408787484251 25.383198505007684 1 -1 2
1052 88 8 0.06 6.211325194992114 22.219586836129242 30.623002286056906 1 0 1
486 41 6 0.06 3.2483738386759953 15.87768212387144 28.590867603925492 -1 0 0
482 41 2 -0.12 3.442774827164015 15.066535626470607 26.487802815269607 -1 0 0
1048 88 4 -0.6830000000000001 3.9093774820736336 20.015495406788627 29.844711351665005 1 0 1
3156 263 12 0.418 2.9546293678095337 21.144689474720245 28.579002729706396 0 1 0
1047 88 3 0.145 5.232914936506481 20.444057327232926 29.94550394856623 1 0 1
2947 246 7 0.06 7.142640468393575 20.644165580446604 26.588992018440926 1 -1 2
489 41 9 0.06 2.767857098847514 14.284701942252449 26.808564726675353 -1 0 0
5034 420 6 0.06 3.8203855930924937 15.99826671460169 31.859862965924773 2 -1 0
6136 512 4 -0.6830000000000001 2.9182288940125742 21.528412089530672 23.40828580359179 1 -1 0
5039 420 11 0.06 6.909988760224732 14.993831683397794 31.230140630320236 2 -1 0
1055 88 11 0.06 5.580208739322339 20.555046464093376 28.96376592533436 1 0 1
3443 287 11 0.06 6.971988369923669 22.304528647473163 23.005009333864656 0 0 1
1046 88 2 -0.12 5.265938039807523 21.798820668713333 30.790521771474264 1 0 1
481 41 1 -0.18 3.3886242044117583 16.182402571556764 27.52297903627625 -1 0 0
1056 88 12 0.418 3.557285939897449 19.831486035045934 30.732010434155665 1 0 1
1752 146 12 0.418 7.523148155093669 17.260355986540965 28.303519561295 0 -1 0
3222 269 6 0.06 7.527173263519733 22.249268619793796 28.518710275870234 0 1 1
745 63 1 -0.18 2.9857801227231757 19.050257381018866 40.43917048108517 -1 0 -1
1283 107 11 0.06 7.4237437537675435 17.68730584406886 37.34374858755561 0 0 0
13 2 1 -0.18 5.149550155275611 12.900397007279391 34.45245991988009 -1 0 -1
753 63 9 0.06 2.763873525930358 19.79760856138226 42.36840547857628 -1 0 -1
746 63 2 -0.12 2.8359198164815296 20.27144849766113 41.336859402864434 -1 0 -1
4354 363 10 0.06 4.249568137507395 17.06200299369956 35.04794044440643 0 -1 0
1280 107 8 0.06 5.297086266481816 17.766527181129725 39.22406951559536 0 0 0
4351 363 7 0.06 3.7551888946665946 20.703090581645508 36.067161521496914 0 -1 0
4987 416 7 0.06 5.146822159018168 13.849903182346583 40.615576339077755 1 1 0
750 63 6 0.06 3.638090013546373 18.329832760034698 40.881448686013314 -1 0 -1
4981 416 1 -0.18 4.109218722537829 14.219443768076138 40.662289738655424 1 1 0
1284 107 12 0.418 5.89696378194647 16.005696277302647 37.70159653719284 0 0 0
4356 363 12 0.418 3.2181679064913236 15.99136032552732 37.49004214163904 0 -1 0
4349 363 5 0.06 3.3447014049335237 19.545330876942643 34.83118597205913 0 -1 0
4988 416 8 0.06 3.20402131248317 12.677881608924388 39.58933852487825 1 1 0
1279 107 7 0.06 6.313506691333964 19.58397584269724 40.528957783224755 0 0 0
4985 416 5 0.06 3.642267512314635 13.959100080914663 41.62151916875913 1 1 0
1050 88 6 0.06 4.148986499394028 21.448775952530138 32.74685974240508 1 0 1
4350 363 6 0.06 5.032285843455253 19.804710498173968 34.99168167288972 0 -1 0
2047 171 7 0.06 6.760267631289065 22.19534957245973 39.50442292611826 2 2 0