LAMMPS data file via write_data, version 29 Aug 2024, timestep = 1000000, units = real

6656 atoms
13 atom types
6656 bonds
13 bond types
12800 angles
25 angle types
16896 dihedrals
33 dihedral types
4096 impropers
8 improper types

1.699240127247986 43.30075987274521 xlo xhi
1.699240127247986 43.30075987274521 ylo yhi
1.699240127247986 43.30075987274521 zlo zhi

Masses

1 12.011
2 12.011
3 12.011
4 15.999
5 12.011
6 1.008
7 1.008
8 1.008
9 1.008
10 1.008
11 1.008
12 1.008
13 1.008

Pair Coeffs # lj/cut/coul/long

1 0.066 3.5
2 0.066 3.5
3 0.066 3.5
4 0.14 2.9
5 0.066 3.5
6 0.03 2.5
7 0.03 2.5
8 0.03 2.5
9 0.03 2.5
10 0.03 2.5
11 0.03 2.5
12 0.03 2.5
13 0.03 2.5

Bond Coeffs # harmonic

1 268 1.529
2 268 1.529
3 320 1.41
4 268 1.529
5 340 1.09
6 340 1.09
7 340 1.09
8 340 1.09
9 340 1.09
10 340 1.09
11 340 1.09
12 340 1.09
13 320 1.41

Angle Coeffs # harmonic

1 58.35 112.7
2 50 109.5
3 58.35 112.7
4 37.5 110.7
5 37.5 110.7
6 37.5 110.7
7 37.5 110.7
8 37.5 110.7
9 37.5 110.7
10 37.5 110.7
11 37.5 110.7
12 35 109.5
13 37.5 110.7
14 35 109.5
15 50 109.5
16 35 109.5
17 37.5 110.7
18 33 107.8
19 37.5 110.7
20 33 107.8
21 35 109.5
22 33 107.8
23 37.5 110.7
24 33 107.8
25 60 109.5

Dihedral Coeffs # opls

1 1.711 -0.5 0.663 0
2 1.3 -0.05 0.2 0
3 0 0 0.3 0
4 0 0 0.3 0
5 0.65 -0.25 0.67 0
6 0 0 0.468 0
7 0 0 0.468 0
8 0 0 0.3 0
9 0 0 0.3 0
10 0 0 0.3 0
11 0 0 0.3 0
12 0 0 0.3 0
13 0 0 0.3 0
14 0 0 0.3 0
15 0 0 0.3 0
16 0 0 0.3 0
17 0 0 0.3 0
18 0 0 0.3 0
19 0 0 0.76 0
20 0 0 0.76 0
21 0 0 0.468 0
22 0 0 0.3 0
23 0 0 0.468 0
24 1.711 -0.5 0.663 0
25 0.65 -0.25 0.67 0
26 0 0 0.3 0
27 0 0 0.3 0
28 0 0 0.3 0
29 0 0 0.3 0
30 0 0 0.3 0
31 0 0 0.3 0
32 0 0 0.76 0
33 0 0 0.76 0

Improper Coeffs # cvff

1 0 -1 2
2 0 -1 2
3 0 -1 2
4 0 -1 2
5 0 -1 2
6 0 -1 2
7 0 -1 2
8 0 -1 2

Atoms # full

2203 170 6 0.06 3.9030261482927644 3.176576404706431 7.947537933158858 0 0 3
824 64 5 0.14 5.2036756135577775 10.149261743663066 4.076842453677688 -3 -2 0
820 64 1 -0.12 3.661722750777087 10.207036666991305 4.377934360732596 -3 -2 0
2199 170 2 -0.12 5.910011579566464 3.9455122185449523 8.556129208441288 0 0 3
5505 424 6 0.06 5.279317508785626 11.379748370957977 7.13550168645634 3 2 -2
832 64 13 0.03 5.429432035378028 9.450909402995643 3.329364743254091 -3 -2 0
2206 170 9 0.06 6.220530289578526 3.3936677222290217 7.731562667512945 0 0 3
2372 183 6 0.06 2.588869894110247 6.547666742458562 6.479313813427152 -2 3 -1
5501 424 2 -0.12 5.071023003283438 9.330162531617056 7.986529162699623 3 2 -2
5507 424 8 0.06 5.696291305592712 8.536907048925887 8.375098879654328 3 2 -2
2201 170 4 -0.4 5.82592060617796 2.4659602640500293 10.332266330286634 0 0 3
5511 424 12 0.03 6.783732161955442 10.7903714533748 9.685349941105342 3 2 -2
5509 424 10 0.03 3.557206381597565 8.739212432033153 9.465650106151259 3 2 -2
2204 170 7 0.06 3.8423799172123534 4.558980012658846 9.101703121118863 0 0 3
2209 170 12 0.03 4.042495731001475 3.24270787075063 10.94016475397821 0 0 3
5503 424 4 -0.4 4.653763556507613 10.59167647537872 9.900684925268163 3 2 -2
825 64 6 0.06 3.114189603855827 9.475752703716449 3.848674539308873 -3 -2 0
43 4 4 -0.4 4.352546904695265 2.609429953865231 2.886516800798731 -4 0 -1
2207 170 10 0.03 6.476836496760105 4.275246820805771 10.671448136941752 0 0 3
6101 470 4 -0.4 4.623092825580304 6.765827464164848 2.1747128316075437 -2 1 1
2198 170 1 -0.12 4.414093028581707 3.6448690068815943 8.79522666395074 0 0 3
2375 183 9 0.06 4.030629218199346 5.534570285135971 5.190180947009273 -2 3 -1
2373 183 7 0.06 2.170762202877405 5.109595567310237 7.230995887913487 -2 3 -1
5504 424 5 0.14 5.839368608661255 11.185715028435078 9.280725494702327 3 2 -2
2202 170 5 0.14 4.476667704299125 2.754078472009936 10.027489341810204 0 0 3
821 64 2 -0.12 3.2937206655188813 11.603113198645381 3.913928063961367 -3 -2 0
2377 183 11 0.03 2.34133124048092 6.16446195442857 3.4993832091368975 -2 3 -1
5508 424 9 0.06 4.63900051307667 9.005557811833896 7.01513195270183 3 2 -2
5510 424 11 0.03 3.1641361544519317 10.101464600945633 8.500856166286482 3 2 -2
5502 424 3 0.14 4.004026279317627 9.660411489504074 9.008903944831665 3 2 -2
6110 470 13 0.03 3.0228867378154183 8.032423848490403 1.9191149325137398 -2 1 1
2369 183 3 0.14 2.1609320115111044 5.222110628778457 3.886002978090012 -2 3 -1
826 64 7 0.06 3.515836852693412 10.0173377681986 5.479561444281893 -3 -2 0
2367 183 1 -0.12 2.1381172198352973 5.57892276320321 6.235764937668859 -2 3 -1
831 64 12 0.03 5.8026168100741256 9.880928865732848 4.9552362866549515 -3 -2 0
5500 424 1 -0.12 5.777342999410875 10.64540852982325 7.828280947340001 3 2 -2
2376 183 10 0.03 2.3433720893673318 4.461147559491554 3.123275295690547 -2 3 -1
2374 183 8 0.06 3.2332594101054637 4.011467607288041 5.361461644860597 -2 3 -1
2368 183 2 -0.12 3.0595391828465477 5.058948894803763 5.104190743894663 -2 3 -1
4470 344 11 0.03 6.409150647331071 6.473628607801932 5.3816799489043685 2 -1 -1
2205 170 8 0.06 6.0179171714614865 4.979790942240356 8.283645727490867 0 0 3
6108 470 11 0.03 5.63783703757891 4.978498177640514 1.9456323347339655 -2 1 1
823 64 4 -0.4 5.6100177111000225 11.46245094489895 3.7840315125034607 -3 -2 0
52 4 13 0.03 6.388315736309058 2.341414291411851 3.253307829082395 -4 0 -1
2200 170 3 0.14 6.576366872608507 3.5602770471051177 9.875856218437434 0 0 3
828 64 9 0.06 2.4111233361112854 11.817767780448182 3.295280642331834 -3 -2 0
2210 170 13 0.03 3.8693849646515894 1.8716601243098179 9.831336048665483 0 0 3
4469 344 10 0.03 6.306700919626347 4.585146672220399 5.245474556075547 2 -1 -1
42 4 3 0.14 3.352464736310815 1.7307103696260402 2.3532699535482307 -4 0 -1
3111 240 4 -0.4 1.7406799215608493 2.7889330205002203 11.13166883800234 -1 0 4
830 64 11 0.03 4.356392385501066 11.96580764369449 2.1648142203028757 -3 -2 0
44 4 5 0.14 5.428166994494952 1.844447182582136 3.4992607798369852 -4 0 -1
5506 424 7 0.06 6.745532630405402 10.391125201765849 7.347951992308515 3 2 -2
5702 439 8 0.06 1.815161171002414 10.48291091340563 10.603441583886465 2 -2 2
51 4 12 0.03 5.280839837185211 1.8703484694966694 4.570263278052724 -4 0 -1
787 61 7 0.06 4.931089580631932 4.03985398349608 19.89013674171393 2 2 0
4812 371 2 -0.12 3.1656662154557966 7.905870498547872 13.950025008274855 -1 2 0
3115 240 8 0.06 3.678494042948344 2.3025971300116046 13.103731369261004 -1 0 4
4960 382 7 0.06 3.2985582296685214 7.486229055486059 20.20199406162902 -1 1 -2
4543 350 6 0.06 2.2728283118250583 5.323916041448069 20.178732795662132 0 3 2
4548 350 11 0.03 3.071745909094913 5.721556983524709 16.38961502252812 0 3 2
4958 382 5 0.14 4.570908635002766 8.89819098540741 21.3603895357281 -1 1 -2
6435 495 13 0.03 2.147823800344478 10.951807171200846 18.043043508548653 0 0 0
4816 371 6 0.06 5.189597915885329 8.284126632298488 14.714686265233873 -1 2 0
3116 240 9 0.06 2.4123749857590555 1.9398717037928053 14.192758667663536 -1 0 4
4956 382 3 0.14 5.650993679944077 9.697174881638274 19.55912515214238 -1 1 -2
4955 382 2 -0.12 4.682637758939498 8.673380866056903 19.007753303985673 -1 1 -2
4823 371 13 0.03 4.74068341183497 10.36148058379713 14.988984013928885 -1 2 0
4954 382 1 -0.12 4.336546742541626 7.94911017872869 20.236506182489375 -1 1 -2
4963 382 10 0.03 5.8280594468640885 10.477431738727798 18.91738094832867 -1 1 -2
781 61 1 -0.12 4.95520640761493 3.109606249414856 20.455393671573663 2 2 0
3738 288 7 0.06 4.548284653684066 2.4232851168758875 15.780649398685192 0 2 -1
4966 382 13 0.03 5.410773798184929 8.55015816328254 22.01259322578871 -1 1 -2
4964 382 11 0.03 6.612418188341593 9.317935407173056 19.866076255110602 -1 1 -2
4957 382 4 -0.4 5.048908317975782 10.098532399940693 20.77056990179078 -1 1 -2
4814 371 4 -0.4 2.712432181266583 10.057851674585454 14.429692217307853 -1 2 0
4961 382 8 0.06 3.8221384274883503 9.141222457014123 18.521591991716328 -1 1 -2
4822 371 12 0.03 3.551351745930253 10.107621166883101 16.324865176795875 -1 2 0
4818 371 8 0.06 2.8199558944262755 6.884342727625076 14.047533777150647 -1 2 0
4817 371 7 0.06 3.824250690739025 7.884060300607143 15.917050046046871 -1 2 0
3732 288 1 -0.12 4.75777904961185 1.8590502865644898 16.627535264820427 0 2 -1
786 61 6 0.06 4.189804384814472 2.4061725410814936 20.0271710518876 2 2 0
6155 474 6 0.06 6.676731148325337 6.132070121845953 18.823313186840505 1 2 1
782 61 2 -0.12 6.317250750218343 2.521772010823903 20.518830773595596 2 2 0
785 61 5 0.14 4.653918998411302 3.2870259028954623 21.925763123946055 2 2 0
4962 382 9 0.06 5.176913585903225 8.049738031103862 18.248872462792068 -1 1 -2
4546 350 9 0.06 3.7803719389728077 4.685017625939583 18.41250588153625 0 3 2
4540 350 3 0.14 2.2617564777484893 5.422810934805564 16.99178276680961 0 3 2
788 61 8 0.06 6.836383062748576 2.5184442059502676 19.637202994145838 2 2 0
4811 371 1 -0.12 4.115752728151044 8.369780059138355 14.984084363119537 -1 2 0
792 61 12 0.03 3.8730455783934823 3.961427834589413 22.150208611617522 2 2 0
4813 371 3 0.14 2.0035598204952976 8.872080460895962 14.289832373911668 -1 2 0
4819 371 9 0.06 3.6056078620569805 8.195951336386347 12.983796674899754 -1 2 0
4959 382 6 0.06 4.9366455689372515 7.031468532565435 20.43415953386339 -1 1 -2
4815 371 5 0.14 3.8403500264839594 9.834613758951583 15.28069746247582 -1 2 0
3109 240 2 -0.12 2.6206833735441606 2.1057089724372275 13.089291115951784 -1 0 4
3737 288 6 0.06 4.43439841750015 2.410721927538303 17.45485422194632 0 2 -1
4539 350 2 -0.12 2.7214995273419875 4.548286071224716 18.188999007684146 0 3 2
4965 382 12 0.03 3.6794657155727046 9.089146587447317 22.000085610653002 -1 1 -2
4545 350 8 0.06 2.700656860952792 3.4949335043915886 17.960838112490475 0 3 2
3117 240 10 0.03 2.4255916649520257 4.224236057949371 12.340423718817537 -1 0 4
4538 350 1 -0.12 1.778162955187154 4.944327085614777 19.27439762276583 0 3 2
793 61 13 0.03 4.366100594534885 2.2737255758200083 22.2990180380368 2 2 0
3110 240 3 0.14 1.8482112479939934 3.255742463913789 12.435307841575675 -1 0 4
1223 95 1 -0.12 3.0377067956217063 9.980726980217373 25.77890516953984 2 2 0
1228 95 6 0.06 2.4989496563260443 10.06744490206971 26.75878167025246 2 2 0
5611 432 8 0.06 5.153866077854724 12.067132846223865 28.964364585833717 -2 4 0
1224 95 2 -0.12 4.1138373797926855 8.911170354781884 25.786258065039842 2 2 0
5609 432 6 0.06 3.6579943250132017 9.754145547668422 30.19401505160509 -2 4 0
318 25 6 0.06 2.9853793882802835 2.32563292530845 24.91694128855138 0 1 -2
5606 432 3 0.14 6.3254559386136515 10.279686586293849 28.997235435602093 -2 4 0
5615 432 12 0.03 5.7546637291425435 10.521777892250807 32.12676623331288 -2 4 0
1858 143 12 0.03 4.2563769364360144 4.376423561628695 28.463532724386628 2 -1 -1
1850 143 4 -0.4 4.567615748174352 5.978061416114585 27.145640454070453 2 -1 -1
5127 395 5 0.14 4.0500436180766055 3.5553504477530753 32.57739259844435 4 0 1
5133 395 11 0.03 2.2495390805733386 5.664576999140991 32.64513120590282 4 0 1
5605 432 2 -0.12 4.939946843498897 10.959658904589235 29.061755332622543 -2 4 0
1847 143 1 -0.12 6.213346251136768 5.168458717216922 28.5325533778418 2 -1 -1
1226 95 4 -0.4 5.170635409795422 10.91864827170875 25.836137193472414 2 2 0
1849 143 3 0.14 5.426067139906729 5.291235920289967 26.22086510598044 2 -1 -1
5124 395 2 -0.12 4.310773478008717 5.900488053956371 32.50725813169994 4 0 1
5125 395 3 0.14 2.959350981026162 5.497549821327849 31.838120184951634 4 0 1
1848 143 2 -0.12 6.697060172874157 5.00429866717145 27.083819822505443 2 -1 -1
1859 143 13 0.03 4.5016741324765155 6.1245570553558055 29.12579419159251 2 -1 -1
5612 432 9 0.06 4.111579049257685 10.559403829052268 28.367967814689035 -2 4 0
1857 143 11 0.03 5.668056286499188 5.9085039082815545 25.359554204578497 2 -1 -1
5607 432 4 -0.4 6.755272098911443 10.247061313322613 30.354453737018524 -2 4 0
1227 95 5 0.14 3.8169480265659903 11.296444442986818 25.68915117910801 2 2 0
1233 95 11 0.03 6.129218915755559 9.044162038102378 25.50999160566349 2 2 0
1235 95 13 0.03 3.4699321290772787 12.033849237592806 26.3860473850618 2 2 0
5604 432 1 -0.12 4.452713457963847 10.49220145148412 30.34737313570864 -2 4 0
5616 432 13 0.03 5.5005833988673025 8.956434714879979 31.383380327089345 -2 4 0
2359 182 6 0.06 1.7245509921120783 6.540226152996823 26.480732263254822 0 1 2
1230 95 8 0.06 3.7398102005333143 8.07802794323014 25.200205783079106 2 2 0
1856 143 10 0.03 4.915754908362714 4.390178900311331 26.103321159838266 2 -1 -1
5132 395 10 0.03 2.6600894877115624 6.096537681050976 31.002151633181242 4 0 1
1852 143 6 0.06 6.55601302031976 6.083379941537065 28.90909248103398 2 -1 -1
5608 432 5 0.14 5.610064977100921 9.99979408220465 31.17467522247217 -2 4 0
2366 182 13 0.03 2.4309035979469305 6.449825122312569 24.092351797025696 0 1 2
5134 395 12 0.03 4.925299182506066 3.1396059807739434 32.10776395921873 4 0 1
1231 95 9 0.06 4.324371653935168 8.893521845790357 26.844579171336285 2 2 0
1853 143 7 0.06 6.389617022376433 4.39659420159939 29.241949377908025 2 -1 -1
1851 143 5 0.14 4.751109134504705 5.36808883003841 28.34686562712752 2 -1 -1
5610 432 7 0.06 3.990778252270695 11.261150302658688 30.918442481874383 -2 4 0
1229 95 7 0.06 2.395382643332108 9.86021830444489 24.894720339894764 2 2 0
317 25 5 0.14 2.8598327483615593 1.8852654913483513 27.06641370902248 0 1 -2
5130 395 8 0.06 5.149875267787957 6.003037389632791 31.773774378974608 4 0 1
319 25 7 0.06 4.545047456332442 1.8608701459849721 25.658608965479473 0 1 -2
324 25 12 0.03 3.6812366195409103 2.1961479711068668 27.742511512715765 0 1 -2
1225 95 3 0.14 5.280191392067486 9.67098101295424 25.22448301317124 2 2 0
1234 95 12 0.03 3.642766491064883 11.66103604833324 24.690508997519753 2 2 0
5126 395 4 -0.4 3.258353830488542 4.104426235983967 31.477559702703683 4 0 1
1232 95 10 0.03 5.292567758467642 9.614000151527923 24.123936324715455 2 2 0
325 25 13 0.03 2.1355504754287162 2.6018492576666654 27.090246469095508 0 1 -2
504 39 10 0.03 2.13423693858752 11.59087670705662 22.752014280298777 2 0 1
5614 432 11 0.03 6.255068144204064 9.23614307835649 28.65534349520613 -2 4 0
342 27 4 -0.4 2.2539807532698415 10.083418938490166 32.83242540634588 -3 2 -1
784 61 4 -0.4 5.80460931684073 3.685384517167479 22.521397313256134 2 2 0
3756 289 12 0.03 1.9391300701201029 8.573404898970015 29.033555200820103 -1 0 -2
5613 432 10 0.03 6.860845422927327 10.736455080513505 28.1444774419134 -2 4 0
2806 216 11 0.03 6.001703199562661 2.1221866892734376 41.313530939943604 0 -3 1
2107 163 1 -0.12 3.881500374600344 7.198423390409522 38.61696164983756 -1 1 0
6100 470 3 0.14 5.261951990226084 5.768335106719733 42.955012883171236 -2 1 0
2115 163 9 0.06 4.181806542277315 8.906997918426717 37.369520132525764 -1 1 0
2111 163 5 0.14 4.128848357619379 5.705265353398275 38.07650457983044 -1 1 0
2108 163 2 -0.12 4.59266345074556 7.944107235080915 37.450637483589944 -1 1 0
347 27 9 0.06 3.881847824524883 11.651966238529228 34.42149959929904 -3 2 -1
6099 470 2 -0.12 4.207583238461397 5.236129486729048 42.005154450230705 -2 1 0
2118 163 12 0.03 5.078358895954697 5.342053101402958 38.30737804840855 -1 1 0
353 28 2 -0.12 5.658919093260664 1.9192578202671198 36.33671014065489 1 -1 1
341 27 3 0.14 2.823122060535864 9.780280688458364 34.10950779495394 -3 2 -1
2112 163 6 0.06 2.7865363852550216 7.388672097745696 38.63621831613247 -1 1 0
5478 422 5 0.14 2.007306842456299 9.78792163176809 41.59112655280241 3 2 2
2117 163 11 0.03 3.3882543180815574 7.478260751261712 35.69698358143425 -1 1 0
6105 470 8 0.06 4.62868472742721 5.293472888543212 40.967373887994 -2 1 0
6107 470 10 0.03 6.073887314341605 6.235923254217944 42.383690994647424 -2 1 0
5123 395 1 -0.12 4.429301817866454 4.716686191947758 33.476728652289765 4 0 1
5135 395 13 0.03 3.490506191221916 2.808472132534905 33.117789765336276 4 0 1
2114 163 8 0.06 5.6932228286481035 8.07268653534172 37.652519828144506 -1 1 0
5486 422 13 0.03 2.084131316979066 8.712413390515914 41.45618435536912 3 2 2
6109 470 12 0.03 4.277890442306088 8.067777716847317 42.247101089210574 -2 1 0
2119 163 13 0.03 3.394009395888583 5.017790525775752 38.50781239105139 -1 1 0
346 27 8 0.06 3.2669360634797364 10.944509874889373 35.898163562220006 -3 2 -1
354 28 3 0.14 4.45835061531482 1.7211188390301728 35.47842116276257 1 -1 1
5128 395 6 0.06 3.817609425592105 4.588589193095801 34.35725590466632 4 0 1
2113 163 7 0.06 4.397657119531285 7.453121985847579 39.50908593598979 -1 1 0
5129 395 7 0.06 5.401306272317022 4.614524318821105 33.903241749105035 4 0 1
6098 470 1 -0.12 3.0446520139532205 6.218388140030663 42.174123369318664 -2 1 0
2116 163 10 0.03 5.088191248449393 7.0854749600873195 35.534325731864044 -1 1 0
5476 422 3 0.14 2.5535568022556046 11.767750817279646 40.654812247167385 3 2 2
340 27 2 -0.12 3.0547139527765674 11.116614288489435 34.84257890129504 -3 2 -1
2110 163 4 -0.4 3.930146153781566 5.821052544503281 36.641620998400455 -1 1 0
357 28 6 0.06 5.019052717802415 2.0305997712071027 38.362768304942435 1 -1 1
5131 395 9 0.06 4.244647050054737 6.815733222989446 33.13892393861954 4 0 1
6103 470 6 0.06 2.309034371438898 5.78030022989174 42.826829522280505 -2 1 0
5477 422 4 -0.4 3.0452209029045405 10.471933523248298 40.822011486928574 3 2 2
2109 163 3 0.14 4.2775311202444986 7.118569092488279 36.219822617857886 -1 1 0
362 28 11 0.03 3.977643308504299 2.7118352624238318 35.41303244875638 1 -1 1
348 27 10 0.03 2.186028817023688 9.076208935837531 34.61021655280386 -3 2 -1
360 28 9 0.06 5.858472804026298 2.957493472210744 36.33207276611999 1 -1 1
6106 470 9 0.06 3.8852355732757182 4.239422926473395 42.307650895397686 -2 1 0
6104 470 7 0.06 2.556481344867665 6.391641514450244 41.14773675912957 -2 1 0
349 27 11 0.03 3.8751130100451174 9.287274820330254 33.94734306473295 -3 2 -1
50 4 11 0.03 2.7691516997838566 2.1698725641021417 43.071170776879356 -4 0 -2
2340 180 13 0.03 6.2915122302070765 10.54607728189274 34.39130508456836 1 -2 -1
6102 470 5 0.14 3.7309495553150507 7.424972995684589 42.91443124003332 -2 1 0
5485 422 12 0.03 2.08267280655545 9.998709399964795 42.626220136025694 3 2 2
2646 204 7 0.06 4.213309282135125 16.459696212054762 11.292207213365142 2 -2 0
5227 403 1 -0.12 5.164229735889743 19.694501580929796 6.778178189855137 0 0 -2
4286 330 9 0.06 4.330572244079491 15.630343746524844 3.1643670918622053 2 2 1
5229 403 3 0.14 5.277820544037562 21.486196930714136 8.434401507983278 0 0 -2
4279 330 2 -0.12 4.263161281188598 16.667844597779023 3.44578081957654 2 2 1
5238 403 12 0.03 3.033296738853733 19.488111896967197 7.225735158047147 0 0 -2
4277 329 13 0.03 6.148277772076571 15.146388119515786 4.13336946088511 1 1 -2
5233 403 7 0.06 4.971027949079021 19.88386482336164 5.68676693134725 0 0 -2
4281 330 4 -0.4 3.172731793181663 17.815701366705927 5.1605131855789 2 2 1
5379 414 10 0.03 2.5354919101790916 12.776307991771013 7.732059162563943 0 1 0
4283 330 6 0.06 2.4501579590707467 16.875930674388403 2.0897292544512283 2 2 1
822 64 3 0.14 4.502226880401926 12.171201938715773 3.2348598426538424 -3 -2 0
4287 330 10 0.03 4.991402497834608 16.793951940332498 5.511556753384436 2 2 1
5231 403 5 0.14 3.965959214536503 19.75771936048455 7.698824226292096 0 0 -2
5232 403 6 0.06 5.562940821816959 18.714765051950412 6.926589032801812 0 0 -2
4284 330 7 0.06 3.4909295246828824 18.349417693422794 2.38849798672478 2 2 1
2647 204 8 0.06 5.821498884761046 18.076331970847832 10.927940949773372 2 -2 0
5230 403 4 -0.4 3.903523360325797 21.09404833147127 8.082183448914176 0 0 -2
5380 414 11 0.03 3.4505478676176744 13.514770778903697 6.425671418931999 0 1 0
4285 330 8 0.06 5.192257048417135 17.121591436530807 3.0499407407820707 2 2 1
5512 424 13 0.03 5.902900350460063 12.232062211852684 9.321740800115624 3 2 -2
3456 266 11 0.03 6.519584219621516 19.83179915403035 2.7116870835157796 -2 1 1
4237 326 12 0.03 2.7231731930735084 21.30701791228107 10.508295443285835 2 -1 0
5371 414 2 -0.12 3.41379296438546 14.747687193973514 8.29428041028344 0 1 0
3151 243 5 0.14 6.39887793189586 13.880671949892857 11.923750421618642 2 3 1
4278 330 1 -0.12 3.0685879726000036 17.488748384733107 2.8481306427812836 2 2 1
5228 403 2 -0.12 6.088325209328432 20.74517382958756 7.337963723325871 0 0 -2
1166 90 9 0.06 4.662238451010689 21.71118184877224 3.8832404819393096 1 0 0
5378 414 9 0.06 4.328032334484818 15.246341011988264 7.9946345155631375 0 1 0
3158 243 12 0.03 6.712870064468103 13.610887767152356 10.934319129497581 2 3 1
2651 204 12 0.03 2.5201941423583127 18.227161600224917 11.103647614173667 2 -2 0
5237 403 11 0.03 5.5168056846642894 21.107155944546673 9.398087127142254 0 0 -2
5234 403 8 0.06 6.28050712519808 21.434267823381152 6.555148522232215 0 0 -2
4288 330 11 0.03 3.5485852323017895 15.778392487551608 5.293637841875418 2 2 1
5703 439 9 0.06 2.2933834963132003 12.119619102435227 9.910936626327233 2 -2 2
5377 414 8 0.06 3.583819995943259 14.227472590739225 9.238309314334355 0 1 0
2644 204 5 0.14 2.9226209183801988 18.086643962939082 12.087316592384898 2 -2 0
4275 329 11 0.03 6.098152535875245 13.228900469389648 6.08418988938834 1 1 -2
829 64 10 0.03 4.60923292444666 13.271597440434281 3.2561625644053094 -3 -2 0
5239 403 13 0.03 4.210220558150937 19.137140489766825 8.569823282949724 0 0 -2
5372 414 3 0.14 2.80026055683712 13.765745289892873 7.237639487369237 0 1 0
2640 204 1 -0.12 4.1727483776206515 17.201947825898824 12.070024513430079 2 -2 0
4282 330 5 0.14 2.243000933066027 17.803040976578412 4.067940621958821 2 2 1
3150 243 4 -0.4 6.551548440653124 15.27244050629104 12.084849676542804 2 3 1
5375 414 6 0.06 2.5034474434208187 16.693968535147633 8.07862766267179 0 1 0
5057 389 13 0.03 1.9273436342067756 21.970001975997306 6.602132099234426 -2 -1 -2
827 64 8 0.06 3.1528864557306715 12.201124379408165 4.783541859042783 -3 -2 0
5376 414 7 0.06 1.9941989892664957 15.762263672478447 9.541204126680398 0 1 0
5370 414 1 -0.12 2.195120676870838 15.71654803926554 8.483820734834516 0 1 0
2649 204 10 0.03 4.603727424793905 20.042349344304228 10.998250925562743 2 -2 0
4280 330 3 0.14 4.035166871403257 16.73952736915157 4.9782354457718085 2 2 1
1833 141 13 0.03 1.8233028049129747 14.506178200147604 2.142620070181005 -2 3 4
4268 329 4 -0.4 6.871920817336583 15.161760753277276 6.0353519892105645 1 1 -2
2641 204 2 -0.12 5.3747396993831025 18.23862001815758 11.88714772997489 2 -2 0
2642 204 3 0.14 4.6406947520191455 19.61622495137453 11.990192315571825 2 -2 0
4230 326 5 0.14 1.7136051381375814 21.797410027856973 10.682180936752017 2 -1 0
5691 438 10 0.03 6.011986772719673 16.253768521317106 16.54169251900462 2 0 0
2645 204 6 0.06 4.301361930485523 16.710748046870982 13.015463104278249 2 -2 0
5900 454 11 0.03 6.127802683122898 19.09493311649114 20.265203785720374 0 0 1
5683 438 2 -0.12 5.9979100638184875 14.187466636749683 17.32611940385074 2 0 0
3436 265 4 -0.4 3.444973221048808 20.42112784211518 16.292776643728793 0 -2 0
3445 265 13 0.03 4.556759519117115 19.113359769479718 15.064014091562473 0 -2 0
672 52 9 0.06 3.1780922169462578 16.77288404485612 21.108837201889386 4 2 -2
2643 204 4 -0.4 3.313358528105595 19.36809028343918 12.443268750846618 2 -2 0
6433 495 11 0.03 3.0260302434267414 12.43197233152941 19.62126190039597 0 0 0
666 52 3 0.14 2.618417684472539 18.751269458304076 20.59002057590925 4 2 -2
3437 265 5 0.14 3.9129573827225466 19.062257683687385 15.940664053904715 0 -2 0
6431 495 9 0.06 2.4392640239186685 14.247818960359014 17.93369385028576 0 0 0
673 52 10 0.03 2.59514360328879 19.147179511062497 19.598673281944304 4 2 -2
665 52 2 -0.12 2.781358653894523 17.301717541018032 20.2677454101311 4 2 -2
5688 438 7 0.06 5.551611676353774 12.286725693993935 16.120237618030668 2 0 0
5684 438 3 0.14 5.329177599116823 15.57119483844198 17.039383643527596 2 0 0
2648 204 9 0.06 6.158805075546611 18.221456933386456 12.628847744988695 2 -2 0
3444 265 12 0.03 4.5213761069155005 18.684931765998098 16.799358953716208 0 -2 0
5690 438 9 0.06 5.876838880380763 13.901365915422446 18.386468230304107 2 0 0
671 52 8 0.06 3.5065679554215388 17.136558839444053 19.441306760011358 4 2 -2
3433 265 1 -0.12 2.7656931719103706 18.172091748624922 15.67806978495524 0 -2 0
5692 438 11 0.03 5.045571348247027 16.261938383339135 17.846966619897422 2 0 0
5899 454 10 0.03 6.8730259450506015 20.280264540494663 21.20797130658221 0 0 1
674 52 11 0.03 3.4105301424834176 19.25259437725183 21.157370174074295 4 2 -2
5668 436 13 0.03 6.348143827843754 12.484210485961203 20.137500185617334 1 -1 -1
2639 203 13 0.03 3.834051091759938 21.960039353984634 19.46762138531729 1 -4 1
2652 204 13 0.03 2.1386535425159234 17.709225663805313 12.682314998968696 2 -2 0
5693 438 12 0.03 5.065620217256068 14.236796885848484 14.64868950734728 2 0 0
503 39 9 0.06 2.3853240352562755 14.227907568991451 22.386474651550042 2 0 1
2650 204 11 0.03 5.102408044519944 20.204995363246642 12.73280730422589 2 -2 0
5687 438 6 0.06 4.392155119190503 12.816556238925774 17.173451565648136 2 0 0
5694 438 13 0.03 3.572586626126214 13.538993217248459 15.294452949963677 2 0 0
5685 438 4 -0.4 4.183549386431248 15.312862076689571 16.19628033838587 2 0 0
3435 265 3 0.14 2.013163712193795 20.333808197252427 16.42629857502817 0 -2 0
6425 495 3 0.14 1.9924969085669757 12.749800675493612 19.62342501277483 0 0 0
5891 454 2 -0.12 6.480837041498436 18.433210504782775 22.25635951516994 0 0 1
3441 265 9 0.06 1.7923538423643777 19.49616600113431 14.402624056002347 0 -2 0
5898 454 9 0.06 6.083779908871674 17.47814998781669 21.986171566690675 0 0 1
5661 436 6 0.06 6.534405281276293 13.902402589047322 22.060569067282696 1 -1 -1
3439 265 7 0.06 2.6092343011877173 17.503536394735 16.544440718724147 0 -2 0
5686 438 5 0.14 4.43239700563548 14.114661220286697 15.532573129849382 2 0 0
5682 438 1 -0.12 5.175870489322982 13.255259168573746 16.49601101161446 2 0 0
3438 265 6 0.06 2.9698556531956246 17.484555064217957 14.818224184327715 0 -2 0
6432 495 10 0.03 1.7888942429959143 13.295354663219817 20.55111064901405 0 0 0
5892 454 3 0.14 6.89537700288718 19.24209310298111 21.03041505368228 0 0 1
3434 265 2 -0.12 1.7070994868080618 19.20666171939612 15.427092322632012 0 -2 0
3442 265 10 0.03 1.7401326317737045 19.917895619380282 17.378771720707487 0 -2 0
3159 243 13 0.03 5.360309436349169 13.429279922036773 12.105131882889207 2 3 1
3190 246 5 0.14 2.883202637093893 15.138187022362974 31.789522122807718 -1 -1 -2
1456 112 13 0.03 6.598875934674806 13.750309658470412 25.676893806655407 -3 0 -1
6009 463 3 0.14 3.5453055005094676 20.725014942946565 31.094684392576333 1 -1 -1
6016 463 10 0.03 2.843687999528104 20.33163586267938 31.779279268528438 1 -1 -1
6018 463 12 0.03 3.3214748903944087 18.20251333991904 30.68631058953252 1 -1 -1
6011 463 5 0.14 4.193788332522182 18.738429717174828 30.213646187866825 1 -1 -1
6007 463 1 -0.12 3.6957722818744236 19.498481451233143 29.010157040061745 1 -1 -1
3196 246 11 0.03 2.2007306997499314 13.587309817636635 29.02717026576051 -1 -1 -2
1446 112 3 0.14 4.767306463886562 16.128393471489034 24.455742113094924 -3 0 -1
1666 129 2 -0.12 4.01280718115088 21.683046378613028 25.872682139270662 0 -1 -4
6019 463 13 0.03 5.001154124164934 18.04192730563774 30.15516150148156 1 -1 -1
1451 112 8 0.06 4.923454146786131 17.25735610542508 26.27084472069827 -3 0 -1
1665 129 1 -0.12 2.4892497897388344 21.3974173511003 25.74884990478814 0 -1 -4
1450 112 7 0.06 5.6916351586503495 15.149902551690861 27.50977765947015 -3 0 -1
6008 463 2 -0.12 3.1732839402115323 20.734947002237316 29.70268428082981 1 -1 -1
1675 129 11 0.03 4.3339629147902174 20.925342308867815 23.90883082843068 0 -1 -4
1454 112 11 0.03 3.7967344862502523 16.108728169479825 23.979810338836014 -3 0 -1
3188 246 3 0.14 2.3419652762036653 14.490736208159932 29.647398038568976 -1 -1 -2
1671 129 7 0.06 1.9211309919750816 21.481533499629073 26.711293250767632 0 -1 -4
1676 129 12 0.03 1.9462033338658449 19.29137632587486 26.324252121520296 0 -1 -4
1448 112 5 0.14 6.224786402700891 14.734127391666448 25.504238292567493 -3 0 -1
1445 112 2 -0.12 4.517944058973996 16.334965341932538 25.95559058927609 -3 0 -1
6012 463 6 0.06 4.525373360915736 19.600957514650798 28.28938934348541 1 -1 -1
6010 463 4 -0.4 4.633854915820542 19.681205452704326 31.16515378289967 1 -1 -1
6015 463 9 0.06 3.5568872802192573 21.629454541662707 29.219411985930027 1 -1 -1
1667 129 3 0.14 4.45473505157896 20.623722150465788 24.90061208062598 0 -1 -4
1453 112 10 0.03 5.210896715086328 17.015331551849037 24.044585356344808 -3 0 -1
1214 94 5 0.14 6.399324208036296 14.471238392066255 32.1062796502616 0 1 -1
502 39 8 0.06 3.288780262226026 13.783633639733926 23.70521963227972 2 0 1
1447 112 4 -0.4 5.565827604959871 14.98993225609587 24.239914391127144 -3 0 -1
1444 112 1 -0.12 5.208479101180865 15.087259121567692 26.552812176538094 -3 0 -1
3189 246 4 -0.4 3.2114300515963086 14.223442663635483 30.714128911151796 -1 -1 -2
6013 463 7 0.06 2.828862546642259 18.919981441561994 28.64335109263552 1 -1 -1
6017 463 11 0.03 3.848404715186309 21.714485219781498 31.45530270811178 1 -1 -1
3197 246 12 0.03 3.6131499073286175 15.91090208018755 31.71916603573205 -1 -1 -2
1668 129 4 -0.4 3.6500969634071843 19.490378345735618 25.172798697528098 0 -1 -4
1452 112 9 0.06 3.4757604355084037 16.343610166747922 26.196554906070748 -3 0 -1
1221 94 12 0.03 6.131147663237294 13.564607166460254 32.73646626601477 0 1 -1
1674 129 10 0.03 5.5578704767120115 20.413402478725615 25.045980998864735 0 -1 -4
3198 246 13 0.03 3.0340800646017727 14.692046334313655 32.859922464892364 -1 -1 -2
1222 94 13 0.03 5.567849842820859 14.972331317682052 31.631625983350066 0 1 -1
1669 129 5 0.14 2.309161151315019 19.84827587091627 25.440367016537017 0 -1 -4
6014 463 8 0.06 2.093150783772056 20.874971398172114 29.533372532895285 1 -1 -1
1449 112 6 0.06 4.4933210002209005 14.279896048582126 26.65206507838803 -3 0 -1
5897 454 8 0.06 5.86027177017998 18.89338424033928 23.006805356361472 0 0 1
1670 129 6 0.06 1.9902441664952006 21.907375650820402 24.998200215371792 0 -1 -4
3195 246 10 0.03 2.8162836394471533 15.304562010081842 29.081161821288607 -1 -1 -2
496 39 2 -0.12 2.3151186187651502 13.733755473526772 23.319061279742925 2 0 1
1672 129 8 0.06 4.444649927574081 21.47276543446163 26.874428199677613 0 -1 -4