LAMMPS data file via write_data, version 29 Aug 2024, timestep = 1000000, units = real

5488 atoms
16 atom types
5488 bonds
16 bond types
10633 angles
31 angle types
16464 dihedrals
48 dihedral types

0.6668661178307325 38.351213882168366 xlo xhi
1.4850129369439955 38.14230706306557 ylo yhi
1.5933415860946987 39.40609841389163 zlo zhi

Masses

1 12.011
2 12.011
3 12.011
4 12.011
5 12.011
6 15.999
7 1.008
8 1.008
9 1.008
10 1.008
11 1.008
12 1.008
13 1.008
14 1.008
15 1.008
16 1.008

Pair Coeffs # lj/cut/coul/long

1 0.066 3.5
2 0.066 3.5
3 0.066 3.5
4 0.066 3.5
5 0.066 3.5
6 0.17 3.12
7 0.03 2.5
8 0.03 2.5
9 0.03 2.5
10 0.03 2.5
11 0.03 2.5
12 0.03 2.5
13 0.03 2.5
14 0.03 2.5
15 0.03 2.5
16 0 0

Bond Coeffs # harmonic

1 268 1.529
2 268 1.529
3 268 1.529
4 268 1.529
5 320 1.41
6 340 1.09
7 340 1.09
8 340 1.09
9 340 1.09
10 340 1.09
11 340 1.09
12 340 1.09
13 340 1.09
14 340 1.09
15 553 0.945
16 268 1.529

Angle Coeffs # harmonic

1 58.35 112.7
2 58.35 112.7
3 58.35 112.7
4 50 109.5
5 37.5 110.7
6 37.5 110.7
7 37.5 110.7
8 37.5 110.7
9 37.5 110.7
10 37.5 110.7
11 37.5 110.7
12 37.5 110.7
13 37.5 110.7
14 55 108.5
15 50 109.5
16 37.5 110.7
17 37.5 110.7
18 33 107.8
19 33 107.8
20 37.5 110.7
21 37.5 110.7
22 58.35 112.7
23 33 107.8
24 37.5 110.7
25 37.5 110.7
26 35 109.5
27 37.5 110.7
28 37.5 110.7
29 33 107.8
30 58.35 112.7
31 37.5 110.7

Dihedral Coeffs # opls

1 1.3 -0.05 0.2 0
2 1.3 -0.05 0.2 0
3 -0.35601 -0.174 0.492 0
4 1.3 -0.05 0.2 0
5 0 0 0.3 0
6 0 0 0.3 0
7 1.711 -0.5 0.663 0
8 0 0 0.3 0
9 0 0 0.3 0
10 0 0 0.3 0
11 0 0 0.3 0
12 0 0 0.3 0
13 0 0 0.3 0
14 0 0 0.3 0
15 0 0 0.45 0
16 0 0 0.3 0
17 1.711 -0.5 0.663 0
18 0 0 0.3 0
19 -0.35601 -0.174 0.492 0
20 0 0 0.3 0
21 0 0 0.3 0
22 0 0 0.3 0
23 0 0 0.3 0
24 0 0 0.3 0
25 0 0 0.3 0
26 0 0 0.3 0
27 0 0 0.3 0
28 0 0 0.468 0
29 0 0 0.3 0
30 0 0 0.3 0
31 0 0 0.468 0
32 1.3 -0.05 0.2 0
33 0 0 0.3 0
34 0 0 0.3 0
35 1.3 -0.05 0.2 0
36 0 0 0.3 0
37 0 0 0.3 0
38 0 0 0.3 0
39 0 0 0.3 0
40 0 0 0.3 0
41 0 0 0.3 0
42 0 0 0.3 0
43 0 0 0.3 0
44 0 0 0.468 0
45 0 0 0.468 0
46 0 0 0.3 0
47 0 0 0.3 0
48 0 0 0.3 0

Atoms # full

978 62 2 -0.12 8.216582635401203 5.257413833894736 4.572181129177071 0 0 0
979 62 3 -0.12 6.7904991383688715 5.813762306739322 4.350444301333986 0 0 0
3127 196 7 0.06 6.75902548383669 4.227289839541012 7.107808453601652 0 1 1
3121 196 1 -0.12 6.8668481136017165 3.2700303023716746 7.637737811697505 0 1 1
3128 196 8 0.06 6.301081595358213 3.4838006968332396 8.55921974895536 0 1 1
987 62 11 0.06 6.20996277163524 5.617914530123338 5.258110388310518 0 0 0
3125 196 5 -0.12 6.225618568617453 2.0109277561428773 6.944495886783796 0 1 1
4108 257 12 0.06 2.2614450078534336 5.611861760727928 8.650145749228518 1 0 0
985 62 9 0.06 8.316995706003883 4.790604576905388 5.492465209803272 0 0 0
3129 196 9 0.06 8.709259126845753 3.405003986064308 8.823530568552057 0 1 1
3122 196 2 -0.12 8.324242846534576 3.0149101984345474 7.922837865952606 0 1 1
2504 157 8 0.06 7.3958974758807505 5.954586608820528 8.726330323207058 0 0 0
988 62 12 0.06 6.263564689204526 5.296818126734834 3.5232430546572937 0 0 0
986 62 10 0.06 8.534404018597353 4.492655344641602 3.812735819520876 0 0 0
4097 257 1 -0.12 3.3576178501329843 3.427626387744231 10.432327587596353 1 0 0
984 62 8 0.06 9.823580253907593 6.412345375381369 5.408192412135767 0 0 0
4098 257 2 -0.12 2.9476702710464133 3.618936660104859 9.024320141033067 1 0 0
4106 257 10 0.06 3.718251841188099 3.801710385637127 8.32345768941197 1 0 0
2503 157 7 0.06 6.553770006521748 6.593412467764844 10.065082775471554 0 0 0
4103 257 7 0.06 4.367236305361316 3.2145682386397887 10.587559761641659 1 0 0
3130 196 10 0.06 8.988483599619592 3.395084564103037 7.104640245119285 0 1 1
977 62 1 -0.12 9.16631467118002 6.502841942743118 4.556642325022274 0 0 0
2505 157 9 0.06 9.441045222805313 7.008696436471843 9.16409770019467 0 0 0
2497 157 1 -0.12 7.28356079357422 6.8270654483264135 9.30808413969933 0 0 0
1435 90 11 0.06 3.3679610862684357 3.0510954565158794 5.995162186841244 0 1 1
1425 90 1 -0.12 0.9463978882098845 1.8185344734416067 5.032344867791635 0 1 1
1426 90 2 -0.12 1.7826250528524314 2.9457980690941463 4.507419745298879 0 1 1
1427 90 3 -0.12 3.1845053872805678 2.6355130707620136 5.031955687590211 0 1 1
980 62 4 0.205 7.031942386144175 7.249385533234223 3.9709267139599085 0 0 0
4105 257 9 0.06 2.6521747854746476 2.625236950607721 8.583984308534932 1 0 0
2446 153 14 0.06 9.877765590587561 4.042229309872796 2.0739517211014045 0 0 1
2506 157 10 0.06 8.782195886134055 6.791670337284912 10.803393821853644 0 0 0
1434 90 10 0.06 1.6101760204659064 2.9961344030629893 3.4231528357162646 0 1 1
4107 257 11 0.06 1.0022542111172268 4.462942248684575 8.479164173410862 1 0 0
2556 160 12 0.06 3.871268866908869 4.841986107057919 2.523851947371634 1 0 1
4100 257 4 0.205 1.5113214946137898 4.942438179981506 10.540641795410021 1 0 0
982 62 6 -0.6830000000000001 7.352989692754543 7.306662326630769 2.549575753429437 0 0 0
4099 257 3 -0.12 1.884903555276494 4.682919200761296 9.029601953738148 1 0 0
1436 90 12 0.06 3.8980257342949876 3.0338671419883805 4.309281916446258 0 1 1
4102 257 6 -0.6830000000000001 1.1126786498163428 6.304742843193022 10.72336753750545 1 0 0
3135 196 15 0.06 5.6992955793168925 2.350341896300457 6.048825535657502 0 1 1
2336 146 16 0.418 6.643139884752716 1.7680239449467536 3.9938088850663878 0 1 0
1433 90 9 0.06 1.328793392874613 3.8489115714287854 4.839947386495257 0 1 1
919 58 7 0.06 6.974818766229849 4.053175425831326 10.919988517214506 0 0 0
2498 157 2 -0.12 8.603843604625983 7.309515433713208 9.81444369576963 0 0 0
3126 196 6 -0.6830000000000001 8.066882202014243 1.5564374666290892 5.422198319877182 0 1 1
983 62 7 0.06 9.762281530079207 6.572885990116543 3.670751420967712 0 0 0
2326 146 6 -0.6830000000000001 5.920205231808395 1.657227875054751 3.3927680004957255 0 1 0
992 62 16 0.418 6.4745655993649605 7.276440666174867 2.1070669659153904 0 0 0
2334 146 14 0.06 8.103624551627679 2.596927582360573 1.9305582871098113 0 1 0
4109 257 13 0.06 0.7538099472213039 4.136120743801499 10.696470113021077 1 0 0
4104 257 8 0.06 2.8226704698376803 2.629377555453244 10.825530113659978 1 0 0
3123 196 3 -0.12 8.381750078710668 1.5006019122982437 7.731021213912249 0 1 1
3340 209 12 0.06 7.43036394203824 13.640033612754484 5.568600636232423 0 0 1
51 4 3 -0.12 1.0588908208408032 12.896575597793547 8.43859714248316 0 0 0
5482 343 10 0.06 0.8073489072931355 9.6015964624422 1.879705850281406 1 0 1
4393 275 9 0.06 4.042037543964748 7.872800521049392 4.550030740731383 1 0 0
4394 275 10 0.06 2.338370564199826 7.865853675739803 5.035611964156966 1 0 0
2510 157 14 0.06 6.759956691158405 7.635759805646371 7.351480935120974 0 0 0
1904 119 16 0.418 5.043411971796345 12.714941972621544 7.749253610630985 0 0 1
4974 311 14 0.06 3.243907176700807 9.533960371947908 9.283113801689794 1 0 0
4075 255 11 0.06 2.7413945644685884 13.376229264561479 2.5032713526742905 0 0 0
4975 311 15 0.06 2.120006409973204 9.583005004509609 10.564027151501175 1 0 0
4968 311 8 0.06 4.706742509675524 8.229327487587033 10.593460737833235 1 0 0
4399 275 15 0.06 3.382245516176735 11.671234494076378 5.079976838521052 1 0 0
4049 254 1 -0.12 6.446967494669849 10.646648370505725 1.7664970065819894 0 0 0
59 4 11 0.06 2.1134263384887686 12.960303739892046 8.229499401783897 0 0 0
4965 311 5 -0.12 3.1764385257333494 9.677680176892181 10.379500016581002 1 0 0
2509 157 13 0.06 8.285117400189876 9.31324257278277 7.942455559334067 0 0 0
4395 275 11 0.06 3.967719601261808 8.128257431661442 6.869553742309476 1 0 0
4973 311 13 0.06 4.243646300609738 11.46294599709045 10.058910208159904 1 0 0
60 4 12 0.06 0.7720979020781094 11.879085702569329 8.524005498110991 0 0 0
4058 254 10 0.06 8.312342284466165 11.264450706098664 2.758294726613018 0 0 0
4063 254 15 0.06 6.121547182643511 12.569144533329757 2.3198611855811344 0 0 0
2700 169 12 0.06 0.6758140317454849 8.29340353162079 8.26133809236558 0 0 0
4386 275 2 -0.12 3.20671215266931 8.502051384379563 4.963501998956431 1 0 0
989 62 13 0.06 6.13264388938455 7.817281887797205 4.204342795461898 0 0 0
4055 254 7 0.06 5.992728753387765 10.157564233684674 2.6406462430588453 0 0 0
4398 275 14 0.06 4.839420575076304 10.969781008762988 4.312422877048715 1 0 0
3333 209 5 -0.12 10.08138442822633 11.719605467286037 6.313382305312739 0 0 1
3334 209 6 -0.6830000000000001 8.289416809404653 12.58622539284088 7.6840848919589915 0 0 1
2511 157 15 0.06 5.6723742175341885 8.229097182438284 8.664615867540308 0 0 0
4389 275 5 -0.12 3.951081578716332 10.795888162647316 4.889930273363299 1 0 0
4391 275 7 0.06 2.013447868121604 10.061563860763677 4.492082726585701 1 0 0
4396 275 12 0.06 2.6107768523612975 9.40595942282437 6.852483004919659 1 0 0
2508 157 12 0.06 8.057618487825327 8.978632967643627 10.924513687302445 0 0 0
3344 209 16 0.418 7.423244465482018 12.966389475182178 7.665194295181023 0 0 1
4388 275 4 0.205 4.477916224054193 10.164393765610555 6.181620674616176 1 0 0
2500 157 4 0.205 7.60932809284434 9.18694092140976 8.79022715747615 0 0 0
4057 254 9 0.06 8.461565379835672 9.795585652987837 1.7196408694120486 0 0 0
2512 157 16 0.418 7.492787457627906 11.054835859950568 9.07130956177594 0 0 0
4387 275 3 -0.12 3.544234993117223 8.957358094691479 6.349707902778429 1 0 0
3339 209 11 0.06 7.703475782616471 12.244818034238039 4.435591849375979 0 0 1
2501 157 5 -0.12 6.724409069887215 7.939265536301767 8.45129033147246 0 0 0
3331 209 3 -0.12 8.106517799804632 12.817803044930507 5.2535802288472855 0 0 1
4397 275 13 0.06 5.4335305162001095 9.818097199058828 5.908919765554366 1 0 0
981 62 5 -0.12 8.286257877885483 7.6742449497507605 4.785211261783612 0 0 0
990 62 14 0.06 8.23510051155829 7.819295198649583 5.813780252835283 0 0 0
991 62 15 0.06 8.851335794141994 8.507488199312293 4.277167236380429 0 0 0
2499 157 3 -0.12 8.49879159291472 8.833366254493981 9.989869660679455 0 0 0
1894 119 6 -0.6830000000000001 5.6177237602003585 13.455314720341946 8.014605787469662 0 0 1
4392 275 8 0.06 3.2031543599631225 9.526161066301547 3.2338927319641853 1 0 0
3330 209 2 -0.12 9.452812537738062 13.303389043733047 4.743183177300296 0 0 1
4390 275 6 -0.6830000000000001 4.6066689490970765 10.9585437039559 7.394315671722414 1 0 0
3337 209 9 0.06 9.58395632027237 12.751110020282685 3.8060350902680566 0 0 1
4400 275 16 0.418 4.889402545803035 10.327920247345196 8.021950976609475 1 0 0
2502 157 6 -0.6830000000000001 6.850080547823191 10.31150941482967 8.893678630212282 0 0 0
4964 311 4 0.205 3.7906191369190925 10.931739947435883 10.926723817091194 1 0 0
3332 209 4 0.205 8.54011014792189 11.895751798544067 6.471566109407564 0 0 1
3341 209 13 0.06 7.966163051875974 10.936981892849905 6.395576548341886 0 0 1
2071 130 7 0.06 8.925289032068177 12.045322941620315 10.666938201824964 0 0 1
4385 275 1 -0.12 3.024793068374673 9.796783446797951 4.1835459083884885 1 0 0
2507 157 11 0.06 9.470873077162857 9.300503805032818 9.961074762399058 0 0 0
57 4 9 0.06 1.0310793659405642 13.506678983280922 6.449677578824445 0 0 0
2074 130 10 0.06 6.892584602926605 13.208743594851507 10.493153372631305 0 0 1
4050 254 2 -0.12 7.952138910558038 10.737276928565452 1.8812852666538236 0 0 0
914 58 2 -0.12 6.052092273046715 4.60218141524018 12.879716230224172 0 0 0
922 58 10 0.06 5.447706044597663 5.393970544656026 12.490553844599578 0 0 0
2135 134 7 0.06 4.478077427792661 7.56300067332129 18.688162832959875 0 1 -1
923 58 11 0.06 6.671143773344184 5.5664998019215854 14.787414144631875 0 0 0
1923 121 3 -0.12 5.690770266243048 2.1582700814140323 19.031502337287094 1 1 -1
921 58 9 0.06 5.456683845427599 3.9314772897351706 13.499635295893668 0 0 0
924 58 12 0.06 7.270886451282394 6.25989891979937 13.322385660150088 0 0 0
915 58 3 -0.12 7.105908522286595 5.36876548270002 13.7941094122642 0 0 0
918 58 6 -0.6830000000000001 9.491475655220361 5.151326819080621 14.218436554063986 0 0 0
913 58 1 -0.12 6.954370327319461 3.75335921156535 11.901839129015581 0 0 0
920 58 8 0.06 6.825486790549567 2.7176932188295675 12.033916856766464 0 0 0
917 58 5 -0.12 8.349166042327031 4.00897019082363 12.367137942454757 0 0 0
3648 228 16 0.418 9.57763161514964 6.9659541281773265 13.878477456260892 1 0 0
916 58 4 0.205 8.286949852159424 4.466779427189115 13.80498725821804 0 0 0
1922 121 2 -0.12 5.927923951516608 2.606116138294529 17.5187519565648 1 1 -1
1931 121 11 0.06 6.587192981361646 2.346467881506243 19.68441919420769 1 1 -1
1924 121 4 0.205 4.514731167483428 3.0584863983421062 19.405190451115992 1 1 -1
925 58 13 0.06 8.089193646012761 3.5930023445432524 14.43872058574558 0 0 0
3274 205 10 0.06 1.4053590298582037 6.137454903310101 18.12779683887907 1 0 0
1925 121 5 -0.12 3.6534578266291375 3.3658869625967736 18.172992468577227 1 1 -1
926 58 14 0.06 9.009800622632888 3.169970086429433 12.26153098208709 0 0 0
1933 121 13 0.06 4.973156262559986 3.9880840261026855 19.702023631721463 1 1 -1
2780 174 12 0.06 2.0164812647042556 6.347205421117248 14.102552444753726 1 1 0
1929 121 9 0.06 6.769591068284834 3.2560671868418467 17.44647070365948 1 1 -1
1934 121 14 0.06 3.143654878690923 4.28607128177957 18.307471157719114 1 1 -1
2136 134 8 0.06 4.698132169361363 6.2766106047284556 17.51024578372218 0 1 -1
2129 134 1 -0.12 4.690403593103425 7.387898935294546 17.595895091789895 0 1 -1
2137 134 9 0.06 6.729407948581143 7.242399578099299 16.953826151198754 0 1 -1
5311 332 15 0.06 9.688650043065639 5.939729164052682 17.932754893563008 1 1 0
5297 332 1 -0.12 9.615422624877482 3.848999746224909 18.668733913309346 1 1 0
4110 257 14 0.06 2.8838496271515464 4.327976078868818 12.29535803123298 1 0 0
2470 155 6 -0.6830000000000001 1.1937799408320509 1.8605724416988765 19.58261208424469 1 0 0
1928 121 8 0.06 4.980936696050084 4.300080264959883 16.59217200116524 1 1 -1
5303 332 7 0.06 8.529555331802218 4.003046346630249 18.70541161391335 1 1 0
5242 328 10 0.06 8.348711970124455 7.013513326432271 20.125410105407017 1 0 0
1921 121 1 -0.12 4.689634355967774 3.2733750757255966 16.96491954016794 1 1 -1
3265 205 1 -0.12 1.1945992481386876 6.141315895249374 20.293011540244574 1 0 0
927 58 15 0.06 8.854306319217537 4.7314377601539 11.805039994770693 0 0 0
1935 121 15 0.06 2.8544980639051603 2.651423205247868 17.914219263826766 1 1 -1
2779 174 11 0.06 1.4023497999158367 7.11795801610928 15.522956032541261 1 1 0
4101 257 5 -0.12 2.884012971818432 4.63209625448496 11.251545849362152 1 0 0
2771 174 3 -0.12 1.2098933859051177 6.876225689884737 14.512857013462607 1 1 0
1936 121 16 0.418 3.043451428063456 2.1036135863617216 20.276057938147922 1 1 -1
3271 205 7 0.06 2.0482132955786794 6.9172812522152896 20.27047414374045 1 0 0
1927 121 7 0.06 4.190793897528751 2.8630959121545696 16.14165251216869 1 1 -1
4112 257 16 0.418 0.7850886839577407 6.311719092365516 11.5966366550806 1 0 0
3643 228 11 0.06 8.958025920829519 7.448645084575753 16.4180105804233 1 0 0
1930 121 10 0.06 6.273009541554543 1.704256802895108 16.950523771058464 1 1 -1
5304 332 8 0.06 9.883459144407205 3.106051246077735 17.929304433238535 1 1 0
5239 328 7 0.06 6.423483333345604 5.48665714104225 19.995007131272036 1 0 0
4111 257 15 0.06 3.5834553050391342 5.427191165263521 11.113056574583975 1 0 0
728 46 8 0.06 1.3356646579584268 11.183086819099195 18.060359050772185 0 1 0
3640 228 8 0.06 9.365547074670879 11.345235860253627 16.3256498033938 1 0 0
3635 228 3 -0.12 9.76864366692322 8.084578101053939 16.089265542300787 1 0 0
734 46 14 0.06 1.2037926848026799 10.24142749744368 15.917943945448247 0 1 0
2142 134 14 0.06 3.58978412260569 7.812894222194471 15.783467511844195 0 1 -1
4783 299 15 0.06 9.603650853615582 9.912489885679745 19.988945607786242 1 0 0
2130 134 2 -0.12 6.077991371543983 7.987345941278577 17.444493388770482 0 1 -1
722 46 2 -0.12 1.3137274205102036 13.250580136377057 17.429801091500096 0 1 0
2073 130 9 0.06 6.65906264139483 12.861472675911308 12.200184272552486 0 0 1
4186 262 10 0.06 6.020638792520695 10.663601916799799 20.16738777934961 1 0 0
4976 311 16 0.418 2.4574529424917824 11.36286908259841 12.205728667122873 1 0 0
2777 174 9 0.06 1.5235354640501817 9.044225696571681 13.97507358097206 1 1 0
1244 78 12 0.06 7.7168144504881715 12.833379063367676 16.504381126122922 0 0 0
2143 134 15 0.06 2.7957529060725554 8.302876563644872 17.35722692025103 0 1 -1
4971 311 11 0.06 5.788549597340447 10.78516011050098 11.716175956769177 1 0 0
3638 228 6 -0.6830000000000001 9.959159834350482 7.853920969459684 13.623127302061768 1 0 0
2139 134 11 0.06 6.356054775835281 8.963352695042527 15.477167794473116 0 1 -1
2778 174 10 0.06 1.155156448032727 7.901602795804663 12.718736505140944 1 1 0
2133 134 5 -0.12 3.7357761219909125 8.217251962671147 16.819893306450513 0 1 -1
64 4 16 0.418 0.9812168157948051 12.439694422362418 11.09679464049758 0 0 0
2770 174 2 -0.12 0.9362102773483874 8.158632183386871 13.744555351829444 1 1 0
729 46 9 0.06 2.2474040642367785 13.272244214799073 18.072100715228565 0 1 0
1236 78 4 0.205 5.882892215991914 13.536823424830121 17.261842845957872 0 0 0
2069 130 5 -0.12 9.805427910538976 13.194032594413885 12.287941555501819 0 0 1
2072 130 8 0.06 8.299625180742682 11.529927846672509 12.19304948256353 0 0 1
4966 311 6 -0.6830000000000001 2.6589176076963446 11.601105451247077 11.297786845450007 1 0 0
2132 134 4 0.205 4.416669558875961 9.563398096379334 16.505691573777124 0 1 -1
1235 78 3 -0.12 7.331658212001166 13.656750981813614 17.074756197035818 0 0 0
4972 311 12 0.06 4.746171067433565 11.234474407403326 12.901816360140444 1 0 0
2896 181 16 0.418 3.799879895490611 13.483308243497829 14.057055820815853 1 0 0
3641 228 9 0.06 9.278366513846777 9.499162021744308 17.77965685872046 1 0 0
2138 134 10 0.06 6.5539044326818745 8.29434795529128 18.394659750003733 0 1 -1
4963 311 3 -0.12 4.771050455948319 10.617648190486536 12.018321194636533 1 0 0
3636 228 4 0.205 9.471183687060151 8.647602356983134 14.722004573713678 1 0 0
4183 262 7 0.06 4.540056336914392 12.418731682843493 19.927334310521807 1 0 0
1248 78 16 0.418 5.207436808662667 13.498495600361947 15.53093910300246 0 0 0
3645 228 13 0.06 8.362378492914122 8.759031471128825 14.778944930285324 1 0 0
2065 130 1 -0.12 8.669842725822292 12.33082669808988 11.643601074035534 0 0 1
2066 130 2 -0.12 7.419823000689131 13.245155345460683 11.514011081671317 0 0 1
3646 228 14 0.06 9.498022646443125 10.734730109118962 13.976691461330896 1 0 0
4182 262 6 -0.6830000000000001 2.4355452260031587 10.306878730111949 20.070941521329736 1 0 0
736 46 16 0.418 0.9562876744799965 12.359717721482891 13.746152591138873 0 1 0
3634 228 2 -0.12 10.061915173407476 9.344969598344733 16.99723132835175 1 0 0
4969 311 9 0.06 5.485444079202235 8.682521067690084 12.66390589149318 1 0 0
1238 78 6 -0.6830000000000001 5.351073599747711 12.781844982007916 16.16856348706277 0 0 0
4970 311 10 0.06 3.8716307210519645 9.025807413426442 13.155160482952233 1 0 0
1245 78 13 0.06 5.726810341410319 12.934345382394138 18.199575539929846 0 0 0
4192 262 16 0.418 2.9099441789517053 10.707256967761419 19.295458760065202 1 0 0
725 46 5 -0.12 0.8080985944822701 11.270368063908384 16.06467516313908 0 1 0
726 46 6 -0.6830000000000001 1.8298871851827994 12.1810424844952 14.018604198191777 0 1 0
4967 311 7 0.06 3.2410070230316905 7.818800178941958 11.374639436195947 1 0 0
724 46 4 0.205 1.8660550304088308 12.210401135022579 15.451179966790756 0 1 0
723 46 3 -0.12 1.6975961969969353 13.607496919645744 15.997615424323172 0 1 0
4961 311 1 -0.12 3.8788478539959006 8.625403903373392 11.162235597475686 1 0 0
2134 134 6 -0.6830000000000001 4.190688190106343 10.506566326342492 17.52784436431699 0 1 -1
733 46 13 0.06 2.854146200530846 11.922101241155426 15.77667238292373 0 1 0
721 46 1 -0.12 0.7458904978183241 11.809027760730682 17.45071903314099 0 1 0
2144 134 16 0.418 4.572674274571305 11.309301840160183 17.160667413081768 0 1 -1
2131 134 3 -0.12 5.972418580691879 9.18602981550316 16.472793575215178 0 1 -1
2141 134 13 0.06 4.042594678657316 9.879954205008318 15.591632982719828 0 1 -1
4962 311 2 -0.12 4.551009471738929 9.158332266953353 12.351458337723226 1 0 0
2140 134 12 0.06 6.573290999777296 9.988551511127199 16.898313892511126 0 1 -1
4188 262 12 0.06 4.266962641634435 9.072719608214957 20.498147644714 1 0 0
5241 328 9 0.06 6.929130838131199 8.14233796012467 20.492874122131266 1 0 0
2532 159 4 0.205 3.6204089593864546 3.604472757917151 24.03894623791719 0 0 0
2081 131 1 -0.12 7.889070138370099 5.048478111089551 27.402815821797116 1 1 0
2087 131 7 0.06 8.12360033875973 4.712529805976732 26.45879071765919 1 1 0
2088 131 8 0.06 8.733297809774514 4.772315796293576 28.108326812502412 1 1 0
2085 131 5 -0.12 7.56722321605033 6.560853422985244 27.493709506367935 1 1 0
2084 131 4 0.205 6.443618811740189 6.698240633182282 28.485200123673188 1 1 0
2531 159 3 -0.12 4.373060024717262 4.465976290832312 25.15731147043146 0 0 0
2539 159 11 0.06 3.7620670395144122 4.543270428451209 26.04446485400972 0 0 0
2533 159 5 -0.12 2.6715400182122013 4.671334355228321 23.46565675761331 0 0 0
5236 328 4 0.205 8.25564344078062 5.9599515727434405 22.839379568142746 1 0 0
2540 159 12 0.06 5.373667605909325 4.094876712260042 25.453142309162622 0 0 0
2530 159 2 -0.12 4.240619953819737 5.924233439494288 24.63920886858085 0 0 0
5245 328 13 0.06 7.920113095728745 5.936743483805684 23.85435603494729 1 0 0
2095 131 15 0.06 7.183088984037157 6.8664922689745085 26.471828548060536 1 1 0
2094 131 14 0.06 8.307754510992439 7.310513087338497 27.71551387019212 1 1 0
2535 159 7 0.06 4.146670961391534 5.903445254639273 22.536019522558455 0 0 0
2529 159 1 -0.12 3.491393530325616 5.994067919142172 23.412092210101843 0 0 0
2537 159 9 0.06 3.6123238225550005 6.572445313270669 25.30238627886772 0 0 0
5235 328 3 -0.12 8.123885669027334 7.307290161749588 22.21119405555428 1 0 0
2541 159 13 0.06 3.0459141382084423 2.7405499632362584 24.43796750612504 0 0 0
2544 159 16 0.418 4.2239108868723605 3.1055094892756485 22.220945638201705 0 0 0
2534 159 6 -0.6830000000000001 4.504709492231796 3.0737376345272756 23.145104516331678 0 0 0
2082 131 2 -0.12 6.715603320115635 4.298998375664818 27.857434691198396 1 1 0
1926 121 6 -0.6830000000000001 3.8569500846849225 2.5624994062147013 20.548317373957744 1 1 -1
2538 159 10 0.06 5.21342628441787 6.3897733086243385 24.503497218994216 0 0 0
2543 159 15 0.06 2.1548927274846434 4.360827224422403 22.53074106002299 0 0 0
2542 159 14 0.06 1.7462836590323765 4.753537451920403 24.0911607612451 0 0 0
5234 328 2 -0.12 7.522689961565051 7.189294510864015 20.791108392747038 1 0 0
5306 332 10 0.06 9.790721360470165 3.471672682149285 20.892498301378552 1 1 0
869 55 5 -0.12 1.8120705774264463 6.8612934996659956 29.235192403334057 0 0 0
5237 328 5 -0.12 7.3302917605857445 5.081142304743914 21.991069054847696 1 0 0
878 55 14 0.06 2.2143983561244016 6.315592855516854 28.373844984417865 0 0 0
5246 328 14 0.06 6.473472811629593 4.696613096708482 22.583345487800575 1 0 0
2536 159 8 0.06 2.974551445898439 6.885940918425868 23.297691021598816 0 0 0
4528 283 16 0.418 8.613652150453861 2.5067623197160938 24.157298550074064 1 0 -1
4518 283 6 -0.6830000000000001 9.02765846068754 3.30908783051014 24.351791830255813 1 0 -1
5104 319 16 0.418 2.7317547830931956 2.2506962687558385 29.248087979300955 1 1 0
5247 328 15 0.06 7.973602493802515 4.266889066978418 21.544674551185565 1 0 0
2091 131 11 0.06 5.091461686555796 5.2253837392035525 29.08761871208958 1 1 0
2093 131 13 0.06 6.762805259310243 6.574861398806602 29.468823095245376 1 1 0
5238 328 6 -0.6830000000000001 9.547919151695577 5.4538385859086596 22.700190488313023 1 0 0
5233 328 1 -0.12 6.686695730802845 6.054075078951086 20.87427296248491 1 0 0
5248 328 16 0.418 9.54451690212278 4.666049033385502 23.220239673554147 1 0 0
2083 131 3 -0.12 5.660506897125978 5.426826223504722 28.15383409546256 1 1 0
5166 323 14 0.06 8.09356938180904 1.9102505830634287 27.777310792369583 1 0 0
2090 131 10 0.06 6.417442144894303 3.535454731877287 27.115020022702407 1 1 0
5240 328 8 0.06 5.8083262823376645 6.5097231308880845 21.24114709814698 1 0 0
3272 205 8 0.06 1.6361771832328345 5.165707965676571 20.592173592780107 1 0 0
2096 131 16 0.418 5.0145495393802335 7.504993001320008 29.097916318566377 1 1 0
2089 131 9 0.06 6.876871360366297 3.8671383610108605 28.83609703102504 1 1 0
2092 131 12 0.06 4.972809894783079 5.589282662016817 27.343607444382588 1 1 0
5167 323 15 0.06 8.625617252892614 1.6654556374789202 29.282693869354368 1 0 0
1357 85 13 0.06 6.798927721312831 1.900009356076146 22.93965088085496 0 1 -1
5094 319 6 -0.6830000000000001 3.144483690435677 2.962862092264176 29.74324684452277 1 1 0
3094 194 6 -0.6830000000000001 7.627615301578042 13.204419293556418 25.484579392052957 0 -1 0
4177 262 1 -0.12 4.737827332135951 12.188427044515967 20.93309512720273 1 0 0
4797 300 13 0.06 1.7178666063787782 11.821053520459737 26.63768038699668 1 0 0
267 17 11 0.06 10.085257445178195 13.510494083839104 23.65661154213956 0 0 0
4191 262 15 0.06 2.6265154610419006 12.601439913880126 21.252809214805296 1 0 0
4788 300 4 0.205 1.510225125543049 10.906904558291282 26.150113149337113 1 0 0
4181 262 5 -0.12 3.364747020009977 11.919322135708034 21.57072976247852 1 0 0
3096 194 8 0.06 6.600505208712323 8.84644925577864 24.77835089635306 0 -1 0
4791 300 7 0.06 1.281312613561112 8.994714409161741 24.54906890786826 1 0 0
4776 299 8 0.06 9.849035161083806 12.302589031788276 21.875553576998225 1 0 0
567 36 7 0.06 4.809576034281298 10.308734989400836 28.559656346813007 0 0 -1
879 55 15 0.06 1.6440545073194248 7.929944433160753 28.974448460571896 0 0 0
4179 262 3 -0.12 4.399557539177838 9.751371785861307 21.266081477378957 1 0 0
5244 328 12 0.06 9.006120112496944 7.900733457152174 22.342617276977162 1 0 0
4187 262 11 0.06 4.64363231760438 9.238448646987983 22.24087653621642 1 0 0
4793 300 9 0.06 3.600959459741133 8.593647758361385 26.648479616722785 1 0 0
4180 262 4 0.205 3.0728430201254606 10.463883374928104 21.330102774437865 1 0 0
3104 194 16 0.418 7.674011212644176 13.107898341695384 26.428661851696752 0 -1 0
3097 194 9 0.06 8.669597027741176 9.5626912197664 24.032105279361108 0 -1 0
4789 300 5 -0.12 2.310917746668289 10.723446077038677 24.928359506457745 1 0 0
4178 262 2 -0.12 5.4615216622967 10.80958036616281 21.08597988013989 1 0 0
5243 328 11 0.06 7.367692823197162 7.86018632990179 22.805769100435384 1 0 0
4782 299 14 0.06 9.46473914826306 9.973698547809128 21.70349795563276 1 0 0
568 36 8 0.06 5.555405556797201 11.852441649598338 28.560263098103686 0 0 -1
3095 194 7 0.06 6.999165285869321 9.298107878237108 26.497426821851764 0 -1 0
3089 194 1 -0.12 7.109720896100921 9.603038439513629 25.444653044108918 0 -1 0
3092 194 4 0.205 7.732821722781093 11.912117267925389 24.85727409215381 0 -1 0
3102 194 14 0.06 5.711887936714045 11.002586280028288 24.45027326459739 0 -1 0
561 36 1 -0.12 5.354423987147526 10.972433288166734 29.19057484287986 0 0 -1
3090 194 2 -0.12 8.570550523037525 9.636099233269723 25.10608658570951 0 -1 0
3100 194 12 0.06 9.089150678303659 11.119112953932442 26.51049704164511 0 -1 0
4798 300 14 0.06 3.3816439346387464 10.983617439522504 25.12269522021013 1 0 0
2086 131 6 -0.6830000000000001 5.492618318945378 7.7664184865062555 28.340068020970417 1 1 0
3098 194 10 0.06 9.208342956987444 8.985336389600523 25.647118577033137 0 -1 0
4796 300 12 0.06 1.0672567369822452 9.432884020147682 27.713834275668077 1 0 0
3091 194 3 -0.12 8.909080123091277 11.06846155919347 25.426084781119247 0 -1 0
3103 194 15 0.06 6.0895456253421925 11.341342696846148 26.139450343693074 0 -1 0
4185 262 9 0.06 6.115977951125966 10.805800175130114 21.932574849977833 1 0 0
4794 300 10 0.06 2.0651879939410245 7.743818206509444 26.425155486370226 1 0 0
4190 262 14 0.06 3.461809163082412 12.057817385559307 22.62745854058974 1 0 0
3101 194 13 0.06 7.800755034323205 12.090294805771816 23.74296226039466 0 -1 0
4787 300 3 -0.12 1.926934878108352 9.795071369687353 27.127547085299884 1 0 0
3093 194 5 -0.12 6.48938667657288 11.000765183619649 25.188601380561376 0 -1 0
4792 300 8 0.06 2.9650990565542292 8.781908803714831 24.05506005614221 1 0 0
4795 300 11 0.06 2.774437394813201 10.234804524766375 27.714370217818697 1 0 0
4785 300 1 -0.12 2.345523633355847 9.1989813295721 24.82759974413047 1 0 0
4799 300 15 0.06 1.969551487032194 11.312893682290476 24.137479306134416 1 0 0
4189 262 13 0.06 2.4683311320813486 10.026156644713078 22.128511211690764 1 0 0
4786 300 2 -0.12 2.5474033321951977 8.658964574152037 26.27206629383592 1 0 0
4184 262 8 0.06 5.328790062293702 12.950128070828105 21.352566561703014 1 0 0
3099 194 11 0.06 9.91036518705601 11.317658194072713 25.143013777229122 0 -1 0
562 36 2 -0.12 6.634491419938273 10.401301980521806 29.871743752537355 0 0 -1
4769 299 1 -0.12 9.712802459561578 11.91210401120396 20.89288428438463 1 0 0
5256 329 8 0.06 9.053229962116134 13.248709308367404 28.26589059539477 1 0 0
569 36 9 0.06 7.498868075954979 10.301420644300624 29.226241700921268 0 0 -1
4775 299 7 0.06 8.767927990796803 12.27159228898317 20.652787805007456 1 0 0
4773 299 5 -0.12 10.034349828752719 10.405723588338637 20.863244846789485 1 0 0
1087 68 15 0.06 5.702684494102105 6.003880430461083 34.379347319207184 0 0 0
2545 160 1 -0.12 3.006859249446138 5.0808210298339525 37.11747900071131 1 0 0
2546 160 2 -0.12 2.6716832348336235 4.566375774887086 38.56346017906962 1 0 0
2548 160 4 0.205 4.9422845030612415 5.529160196789207 38.59419844898365 1 0 0
5091 319 3 -0.12 4.590874504463779 3.2871234577673456 31.577551524264283 1 1 0
2550 160 6 -0.6830000000000001 4.742453054985526 6.818666180410421 39.04953787302132 1 0 0
2559 160 15 0.06 4.836636768516962 6.340154101684517 36.6235079068785 1 0 0
2549 160 5 -0.12 4.5210856039761556 5.418030051717739 37.12022589831183 1 0 0
2558 160 14 0.06 5.060373285499213 4.684405337142977 36.58305105747816 1 0 0
5097 319 9 0.06 4.475181505995549 3.033026984141623 33.56295004674742 1 1 0
5098 319 10 0.06 3.838299774210823 4.675355028932599 33.247453100771615 1 1 0
1079 68 7 0.06 7.90774850782999 5.773464769681504 34.45569696689631 0 0 0
5090 319 2 -0.12 3.89452750538138 3.6094248119893013 32.906486162391325 1 1 0