LAMMPS data file via write_data, version 29 Aug 2024, timestep = 1000000, units = real

6517 atoms
19 atom types
6174 bonds
18 bond types
11319 angles
33 angle types
14406 dihedrals
42 dihedral types

1.4891459676644487 41.60085403231787 xlo xhi
1.4891459676644487 41.60085403231787 ylo yhi
1.4891459676644487 41.60085403231787 zlo zhi

Masses

1 12.011
2 12.011
3 12.011
4 12.011
5 12.011
6 14.007
7 1.008
8 1.008
9 1.008
10 1.008
11 1.008
12 1.008
13 1.008
14 1.008
15 1.008
16 1.008
17 1.008
18 1.008
19 1.008

Pair Coeffs # lj/cut/coul/long

1 0.066 3.5
2 0.066 3.5
3 0.066 3.5
4 0.066 3.5
5 0.066 3.5
6 0.17 3.3
7 0.03 2.5
8 0.03 2.5
9 0.03 2.5
10 0.03 2.5
11 0.03 2.5
12 0.03 2.5
13 0.03 2.5
14 0.03 2.5
15 0.03 2.5
16 0.015 2.5
17 0.015 2.5
18 0 0
19 0 0

Bond Coeffs # harmonic

1 268 1.529
2 268 1.529
3 268 1.529
4 268 1.529
5 382 1.448
6 340 1.09
7 340 1.09
8 340 1.09
9 340 1.09
10 340 1.09
11 340 1.09
12 340 1.09
13 340 1.09
14 340 1.09
15 340 1.09
16 340 1.09
17 434 1.01
18 434 1.01

Angle Coeffs # harmonic

1 58.35 112.7
2 58.35 112.7
3 58.35 112.7
4 56.1999 109.47
5 37.5 110.7
6 37.5 110.7
7 37.5 110.7
8 37.5 110.7
9 37.5 110.7
10 37.5 110.7
11 37.5 110.7
12 37.5 110.7
13 37.5 110.7
14 37.5 110.7
15 37.5 110.7
16 35 109.5
17 35 109.5
18 37.5 110.7
19 43.6 106.4
20 33 107.8
21 33 107.8
22 35 109.5
23 33 107.8
24 37.5 110.7
25 33 107.8
26 37.5 110.7
27 33 107.8
28 35 109.5
29 33 107.8
30 37.5 110.7
31 33 107.8
32 37.5 110.7
33 37.5 110.7

Dihedral Coeffs # opls

1 1.3 -0.05 0.2 0
2 1.3 -0.05 0.2 0
3 2.392 -0.674 0.55 0
4 0 0 0.3 0
5 -0.19 -0.417 0.418 0
6 0 0 0.4 0
7 -0.19 -0.417 0.418 0
8 0 0 0.3 0
9 0 0 0.3 0
10 0 0 0.3 0
11 0 0 0.3 0
12 0 0 0.3 0
13 0 0 0.3 0
14 0 0 0.3 0
15 0 0 0.3 0
16 0 0 0.4 0
17 0 0 0.3 0
18 0 0 0.3 0
19 0 0 0.3 0
20 0 0 0.3 0
21 0 0 0.3 0
22 0 0 0.3 0
23 0 0 0.3 0
24 0 0 0.3 0
25 0 0 0.3 0
26 0 0 0.3 0
27 0 0 0.3 0
28 0 0 0.3 0
29 0 0 0.3 0
30 0 0 0.4 0
31 0 0 0.4 0
32 0 0 0.3 0
33 0 0 0.3 0
34 0 0 0.3 0
35 0 0 0.3 0
36 0 0 0.3 0
37 0 0 0.3 0
38 -1.013 -0.709 0.473 0
39 0 0 0.3 0
40 0 0 0.3 0
41 0 0 0.3 0
42 -1.013 -0.709 0.473 0

Atoms # full

2654 140 13 0.06 3.8842732992656153 3.8138553013278984 3.772591621396574 1 2 2
2655 140 14 0.06 6.291841545147112 4.354489197140399 3.984690007794732 1 2 2
2644 140 3 -0.12 4.606545189764305 3.478683811722624 3.011551658970257 1 2 2
2645 140 4 -0.12 6.065779241358457 3.367924327935614 3.554554211911164 1 2 2
5316 280 15 0.06 6.83950889679657 7.700618595441245 7.1898351674207115 2 2 1
2659 140 18 0.36 7.526088433371428 3.2538092223158435 5.593153023018059 1 2 2
5320 280 19 0.36 7.062203678044111 4.553614452368366 9.029243180614042 2 2 1
5307 280 6 -0.9 7.15488526231464 5.481194542430703 8.620591405921157 2 2 1
3445 182 6 -0.9 10.50236985688334 6.482055537725468 10.052292783217649 1 0 2
2565 135 19 0.36 7.5686675723048165 5.8009617027527565 6.174680189635721 0 0 -1
2552 135 6 -0.9 8.374296320298722 5.181004829792356 6.080389425476258 0 0 -1
5319 280 18 0.36 7.7331273984963875 5.87179465926606 9.35196408380409 2 2 1
5317 280 16 0.06 5.293290724785248 5.378481549212651 7.758899137293771 2 2 1
5306 280 5 0.06 5.842718108012646 6.0673298380944525 8.394064923439906 2 2 1
5451 287 17 0.06 2.2671581732598014 6.210450772640821 4.1333237624188195 1 1 2
5318 280 17 0.06 5.287728376676517 6.063056520830428 9.339520596129738 2 2 1
2564 135 18 0.36 8.508206111293713 5.12699415610809 7.099434870749191 0 0 -1
3675 194 8 0.06 7.4898103678037975 7.088717474748934 2.6991414294506635 1 0 1
5547 292 18 0.36 11.253990396624735 2.924676021850394 8.076372894084159 2 -2 0
2941 155 15 0.06 6.93906943584846 1.7082376734835123 11.152456722650772 -1 0 -3
2945 155 19 0.36 8.377113617410552 2.5660501364066044 8.579008768126943 -1 0 -3
3457 182 18 0.36 11.41423655856842 6.388856869988137 10.45484589516067 1 0 2
5546 292 17 0.06 10.889628407704892 3.151031289249537 11.084127183334315 2 -2 0
2944 155 18 0.36 7.271137360901117 1.9640128751958812 7.651954029625749 -1 0 -3
6212 327 18 0.36 1.6404947396114444 14.819239207143855 10.332760813120569 -1 -1 1
2651 140 10 0.06 5.098098607896947 5.265902273260725 2.1893643658002335 1 2 2
5405 285 9 0.06 7.726156122939258 10.632822404960804 6.9624629734906645 -1 2 2
3444 182 5 0.06 9.54343249595371 6.663752885474376 11.104003214722677 1 0 2
2560 135 14 0.06 9.421524970671921 7.7969784830186954 5.577066134470073 0 0 -1
3602 190 11 0.06 6.627923748919797 13.75824394371253 8.36282887653101 2 0 -1
2658 140 17 0.06 5.391960879599722 2.6157280962821723 5.445559565469015 1 2 2
2551 135 5 0.06 9.596052806745291 5.670195661368828 5.362959712608654 0 0 -1
3609 190 18 0.36 3.2379121909117456 13.175557429400547 6.1168671079345085 2 0 -1
2561 135 15 0.06 10.003370587621548 6.957773553030217 6.984908857250504 0 0 -1
691 37 7 0.06 6.54476085582889 10.005129163508618 10.095168376996005 0 2 -1
584 31 14 0.06 3.5621675695283894 2.288316721656801 11.344739622944951 -3 3 2
3668 194 1 -0.18 7.943373353859359 6.602335449735115 1.8880995540167513 1 0 1
2562 135 16 0.06 10.379216559756074 4.905107177073663 5.470989181365399 0 0 -1
2647 140 6 -0.9 7.3941066496790855 2.333747514860914 5.263547567515309 1 2 2
2932 155 6 -0.9 7.474670905986872 2.1436625347237492 8.636268543594259 -1 0 -3
3809 201 9 0.06 11.016012963312651 11.694626131902968 10.540891238676167 1 -1 1
3456 182 17 0.06 8.803699457868218 7.446063345586515 10.866734250266667 1 0 2
3679 194 12 0.06 9.86942721273911 8.585565210347113 2.9406776997770745 1 0 1
5406 285 10 0.06 10.167107699902655 11.206919716282181 8.12850373958937 -1 2 2
5535 292 6 -0.9 10.776153901936343 3.2607004211981376 8.898442748325259 2 -2 0
2550 135 4 -0.12 10.084415840327823 6.99457014742904 5.944188317898973 0 0 -1
3595 190 4 -0.12 5.272689048581034 14.700959132272915 6.038535241210255 2 0 -1
576 31 6 -0.9 3.6456089286734046 2.632888045225733 8.893455926217825 -3 3 2
694 37 10 0.06 6.083434074564027 12.918332855589195 10.76946743343976 0 2 -1
3678 194 11 0.06 10.067394767345645 6.360349041736489 2.0611316085947813 1 0 1
698 37 14 0.06 3.5301669605732995 13.691075143153855 10.924240873973277 0 2 -1
2563 135 17 0.06 9.385851325122298 5.866993508527655 4.356357162772483 0 0 -1
2940 155 14 0.06 8.614974863389206 2.037858545192097 11.01094773868455 -1 0 -3
588 31 18 0.36 4.162181435545637 2.769844451259826 8.013917911323533 -3 3 2
3807 201 7 0.06 9.71840569156536 11.000431043076562 11.510435768611764 1 -1 1
5410 285 14 0.06 10.461914652151561 12.353244054451148 4.9073260216867745 -1 2 2
2653 140 12 0.06 4.379281991694501 2.492338770362779 2.7277890723255798 1 2 2
587 31 17 0.06 5.241132533338905 1.5985022269164872 9.634777415865718 -3 3 2
3596 190 5 0.06 5.309831653010561 13.215561470285826 5.921348922947189 2 0 -1
589 31 19 0.36 3.9189333024764035 3.396149728913289 9.533346098584616 -3 3 2
2646 140 5 0.06 6.061369854955858 2.3186877396235506 4.6774139541249244 1 2 2
4735 250 4 -0.12 11.167976603294868 2.879636614043968 1.68687060410531 0 -2 2
5443 287 9 0.06 1.9879290060516912 8.708789215432693 8.477468724870834 1 1 2
2656 140 15 0.06 6.83736099429422 3.214756901232143 2.82825859610173 1 2 2
3597 190 6 -0.9 3.934324881976401 12.78384611727476 5.50957639959313 2 0 -1
3676 194 9 0.06 7.858939404274007 5.550479225839472 2.0596797972354572 1 0 1
5407 285 11 0.06 8.894626443164636 12.249462966095207 8.371177839468707 -1 2 2
3607 190 16 0.06 5.452994028245428 12.728354379205097 6.899795304626778 2 0 -1
5313 280 12 0.06 4.672717210813667 6.851655152913459 6.325178037496955 2 2 1
5120 270 9 0.06 3.7770064926169646 9.482043379829499 2.125066963172084 0 0 0
5305 280 4 -0.12 5.9868756611270495 7.455441594377792 7.811774627114519 2 2 1
2643 140 2 -0.12 4.564272433129018 4.369114541423983 1.761215193070513 1 2 2
5397 285 1 -0.18 8.481392231155933 11.256897442773534 6.563266427824495 -1 2 2
701 37 17 0.06 1.8759091898593252 12.376574992575263 9.24328857748791 0 2 -1
5303 280 2 -0.12 4.844339729371001 9.129573177707304 6.280283161198794 2 2 1
2556 135 10 0.06 11.14774822248641 9.361431795592637 5.267321122720478 0 0 -1
3453 182 14 0.06 8.766939705488285 4.778153866937759 10.533560493222751 1 0 2
5403 285 7 0.06 8.935555067826659 10.506046903709988 5.8663752697074125 -1 2 2
3458 182 19 0.36 10.484449726287668 7.440673896463227 9.711121825946538 1 0 2
5315 280 14 0.06 6.107756440070117 8.102885170091966 8.646452100801172 2 2 1
3608 190 17 0.06 6.046197245806968 12.84335196535275 5.224743076355397 2 0 -1
5304 280 3 -0.12 4.741912246199195 7.724394461793333 6.948112975718124 2 2 1
5314 280 13 0.06 3.9098315884992565 7.648548900582523 7.6341327684615745 2 2 1
5404 285 8 0.06 7.9082806488432995 12.09884736014187 6.008941732019303 -1 2 2
5118 270 7 0.06 5.351570327049696 8.836927227034668 2.6044961669069737 0 0 0
5357 282 18 0.36 1.8300841089054871 9.647572221452233 2.649078211370006 2 0 1
5310 280 9 0.06 3.7878772086639265 10.184223186663681 4.6622578550802976 2 2 1
5312 280 11 0.06 5.765859143642965 9.359806105159638 5.678358305716259 2 2 1
5112 270 1 -0.18 4.689892471594707 9.042944738722497 1.7554228060878883 0 0 0
5309 280 8 0.06 3.4091179603733797 8.489542642185537 4.867901557175076 2 2 1
693 37 9 0.06 7.078235555376945 11.533075024998611 9.11030851233133 0 2 -1
3610 190 19 0.36 3.730550146123843 13.202687640933666 4.679357092913952 2 0 -1
692 37 8 0.06 7.740943403997197 11.1598112183515 10.706620133963783 0 2 -1
5123 270 12 0.06 6.314905646107477 10.94217372138489 2.1128241975187345 0 0 0
5548 292 19 0.36 10.714981509732942 4.287329879208121 8.790689252605095 2 -2 0
2660 140 19 0.36 8.0992380004542 2.2605711865669313 4.546564993502503 1 2 2
697 37 13 0.06 4.501037770973565 12.116839920800548 9.100826451647858 0 2 -1
688 37 4 -0.12 3.2420484210696348 12.646295872753885 10.854134753898494 0 2 -1
4361 230 10 0.06 2.4843591573334596 2.1481242223136836 4.782217410541506 0 1 -1
3669 194 2 -0.12 9.314060026441112 6.9922790920416045 1.5597510901408156 1 0 1
696 37 12 0.06 4.000630295441239 10.754949019898993 10.012581728328396 0 2 -1
5398 285 2 -0.12 9.486147545090102 11.88440159106417 7.55189404392688 -1 2 2
5409 285 13 0.06 9.756014495404894 13.97477546201264 6.805027557106127 -1 2 2
5308 280 7 0.06 2.8072572790125685 9.664805424707007 5.866417391913548 2 2 1
687 37 3 -0.12 4.333118305264197 11.808458599071795 10.097534589677853 0 2 -1
3670 194 3 -0.12 9.731611264814937 8.449416746171106 1.841456056674555 1 0 1
685 37 1 -0.18 6.799931542862203 11.097175066229568 10.099290498973216 0 2 -1
5408 285 12 0.06 10.995053804991105 13.492119894168292 7.7893426569770785 -1 2 2
5302 280 1 -0.18 3.6489257978447234 9.349037199163847 5.350170883948474 2 2 1
5311 280 10 0.06 4.767668033111055 9.915832423930002 7.023936482234779 2 2 1
5399 285 3 -0.12 10.32068256985732 13.117678049434184 7.012514705360393 -1 2 2
686 37 2 -0.12 5.666329029556425 11.929259641659408 10.830130759318907 0 2 -1
689 37 5 0.06 1.8086839436310016 12.351964482618673 10.316733004020898 0 2 -1
5400 285 4 -0.12 11.102895170218154 12.706715545587842 5.781127112828309 -1 2 2
4748 250 17 0.06 9.958935223614265 1.9160025535190444 3.2086715735423996 0 -2 2
2649 140 8 0.06 2.62283181870523 5.241817650054159 1.9973093452886657 1 2 2
5446 287 12 0.06 1.910324988443667 7.476770190434733 6.329944094598583 1 1 2
3443 182 4 -0.12 8.920363356388929 5.341794535604703 11.513456962157292 1 0 2
700 37 16 0.06 1.514157971334351 11.347936463216316 10.53679490243896 0 2 -1
2549 135 3 -0.12 11.465310632196484 7.3127882108439115 5.470928081442677 0 0 -1
4736 250 5 0.06 10.806112945440338 1.6575797358723714 2.5465234748947827 0 -2 2
5534 292 5 0.06 11.418787447483448 2.806406315561807 10.174486401090256 2 -2 0
2559 135 13 0.06 11.415242638621578 7.175486911147009 4.364996374400284 0 0 -1
4745 250 14 0.06 11.508635820856178 3.7298427488967607 2.2318424229159213 0 -2 2
5921 312 12 0.06 10.481200309449287 8.00557219999018 15.341643745347993 2 -2 -1
3450 182 11 0.06 7.492128325117038 3.642876678284328 13.161855365710283 1 0 2
1694 90 3 -0.12 3.5272050913640722 3.7125339533800785 21.154156495639263 0 0 0
3441 182 2 -0.12 6.823155481459364 4.262124729284022 12.469989993245196 1 0 2
3440 182 1 -0.18 5.493443372836291 4.525810466901032 13.159733058884825 1 0 2
3442 182 3 -0.12 7.620155575427639 5.5465503727024235 12.24406631594143 1 0 2
3447 182 8 0.06 4.945056655759375 3.54854946419686 13.157815672252601 1 0 2
1768 94 1 -0.18 3.87698566346162 5.623864892158877 17.57288314376179 -1 1 -2
4505 238 2 -0.12 7.6611344686682346 2.451299070067085 17.23109358313765 -2 0 -1
4510 238 7 0.06 6.865003035180206 3.7396194980751534 18.627437649414972 -2 0 -1
1778 94 11 0.06 2.8076974344304544 4.5158062263123 15.955165867681162 -1 1 -2
4071 215 5 0.06 2.503813822406973 7.195268481342542 12.978506192106439 2 0 1
814 43 16 0.06 7.553325771506153 11.54584438993165 17.40262419553367 1 2 -1
4504 238 1 -0.18 7.505469955304509 2.8407706532844124 18.638711374347736 -2 0 -1
4511 238 8 0.06 8.457433396271304 2.9960786153424115 19.116846101082952 -2 0 -1
1769 94 2 -0.12 2.5906636435796866 4.827369160358652 16.979478336355044 -1 1 -2
4512 238 9 0.06 7.029288025776524 2.052154392508063 19.163114845777866 -2 0 -1
1775 94 8 0.06 3.845134253606098 5.46020988055205 18.624611143226847 -1 1 -2
1776 94 9 0.06 3.908313432003114 6.665102062928261 17.48846994273631 -1 1 -2
4082 215 16 0.06 3.1092223726916144 6.927886968026389 12.095669916459762 2 0 1
4514 238 11 0.06 8.086945008120875 3.276743501833746 16.752523359421915 -2 0 -1
488 26 13 0.06 2.0996372437551747 14.797870441859525 17.60858151656562 1 0 0
699 37 15 0.06 3.210860055529765 12.466984481048044 11.897286188748135 0 2 -1
489 26 14 0.06 2.69056556263336 13.426919511152708 15.11668618862655 1 0 0
1774 94 7 0.06 4.839260272585548 5.33230342233559 17.07628792359325 -1 1 -2
4072 215 6 -0.9 3.280579915483615 7.117183853626394 14.210500412349187 2 0 1
1777 94 10 0.06 2.5300672125972286 3.902802117919435 17.452996765671372 -1 1 -2
5920 312 11 0.06 10.977974967001984 5.707711208779314 16.147361286696103 2 -2 -1
5912 312 3 -0.12 11.457796488934527 7.743071276894266 15.685281585984876 2 -2 -1
3448 182 9 0.06 4.855904141350784 5.262030103608344 12.564457998300893 1 0 2
3446 182 7 0.06 5.649060696779354 4.800332401576409 14.197627152681388 1 0 2
1595 84 18 0.36 7.6936482854114345 14.765063172972745 21.31693362631325 0 0 0
3451 182 12 0.06 7.930818651218084 5.972802782927257 13.219684409139841 1 0 2
5924 312 15 0.06 11.159587666639217 7.684320196053496 17.79824295008785 2 -2 -1
1101 58 18 0.36 9.202998654486784 11.502114281991895 21.080909970088783 1 -1 0
3700 195 14 0.06 6.510677242928897 9.165009901500198 17.819964203294717 2 2 2
3452 182 13 0.06 6.968773821356019 6.272855443192411 11.687766440419017 1 0 2
3697 195 11 0.06 2.9866410247952073 10.703460238615508 18.82929654747029 2 2 2
3705 195 19 0.36 9.00150067745227 8.841217463291118 18.954387671656082 2 2 2
4513 238 10 0.06 8.418540533248681 1.5990363877601648 17.160337178989117 -2 0 -1
1413 75 7 0.06 1.6610654567946241 2.3769218343326557 14.024334900435079 1 2 -1
3692 195 6 -0.9 8.3214837046079 8.27657814314869 19.465534051919576 2 2 2
5916 312 7 0.06 10.652548903697019 5.905729416123275 13.677361184513927 2 -2 -1
3701 195 15 0.06 5.614589944854968 8.164462913483373 18.914353243647547 2 2 2
484 26 9 0.06 1.87620213053776 12.200365612701379 19.710630285904763 1 0 0
4516 238 13 0.06 5.807050980923999 3.1118755503977695 16.578603618421617 -2 0 -1
3694 195 8 0.06 4.57476788915595 9.59366188531068 16.418205969573734 2 2 2
1779 94 12 0.06 1.699698373498136 6.831420321663358 16.53634947962776 -1 1 -2
808 43 10 0.06 7.612704491250101 11.03005395236768 12.939004208827766 1 2 -1
4085 215 19 0.36 3.597068202521616 6.181976796854578 14.356660651445768 2 0 1
4515 238 12 0.06 6.473634088208298 2.036514408466882 15.430729094422146 -2 0 -1
4070 215 4 -0.12 2.054730455685156 8.657157790513466 12.822525977712901 2 0 1
5687 300 6 -0.9 10.596235021779744 13.470305340642902 18.29690177635927 1 1 1
1705 90 14 0.06 3.932697895331129 2.7567627257650695 19.319989691545928 0 0 0
3811 201 11 0.06 11.035919996070078 13.174088644628055 12.482857360950561 1 -1 1
3455 182 16 0.06 10.18423099096881 7.009432701988917 11.819737776989017 1 0 2
1702 90 11 0.06 1.9585329176673585 5.267492837077834 21.237563680314487 0 0 0
4461 235 15 0.06 11.498552665346715 2.4013562824492483 19.03247725100367 2 -1 0
4080 215 14 0.06 2.8976438932345356 9.32429535252339 12.732915293018713 2 0 1
5700 300 19 0.36 11.06576892063226 12.93417398645207 17.592810555341718 1 1 1
1706 90 15 0.06 2.318983568151959 3.2381955281977444 19.451420985223685 0 0 0
4084 215 18 0.36 4.143889186703098 7.617068347027658 13.954262639057088 2 0 1
3688 195 2 -0.12 3.8079821029755183 10.06493735260838 18.445020708804652 2 2 2
1695 90 4 -0.12 3.1393069860569907 2.7772954248842643 20.00931413831562 0 0 0
1090 58 7 0.06 4.619463549461175 12.468399547113762 20.970428180589174 1 -1 0
3689 195 3 -0.12 5.181766537706948 10.18328741621929 19.166548894116332 2 2 2
4520 238 17 0.06 3.7858273437041325 1.8969974761380755 16.27014844356882 -2 0 -1
479 26 4 -0.12 2.3726111405332326 14.278556411908992 15.707394152070693 1 0 0
5915 312 6 -0.9 10.861380220503449 10.111360239361781 18.701614186747342 2 -2 -1
800 43 2 -0.12 7.858990099214798 10.116245128676534 13.53174500140036 1 2 -1
3693 195 7 0.06 2.907994282472341 9.868329144904564 16.61176351943823 2 2 2
3801 201 1 -0.18 10.795648057785236 11.246387381509912 11.556556204564428 1 -1 1
1596 84 19 0.36 8.766503782767508 14.22048127773666 20.128212580105593 0 0 0
3703 195 17 0.06 7.696176229803648 10.29362565057819 19.89857142335349 2 2 2
810 43 12 0.06 8.202495566280879 9.855970420176838 15.79178799797369 1 2 -1
812 43 14 0.06 7.344164826622238 12.72120042124482 14.542391533431568 1 2 -1
806 43 8 0.06 7.059907895430918 8.584790698758352 12.07829560114125 1 2 -1
807 43 9 0.06 5.8911466017877645 9.20436482021056 13.159672085025436 1 2 -1
5699 300 18 0.36 9.753056936623805 13.672430896748038 17.800173097511554 1 1 1
3690 195 4 -0.12 6.123819618914513 9.125673532432828 18.858745938102075 2 2 2
801 43 3 -0.12 7.6401499223386695 10.502233862261583 15.042159349684438 1 2 -1
478 26 3 -0.12 2.4011796924064672 13.882146023102717 17.139077678190915 1 0 0
5927 312 18 0.36 10.405462317774514 11.006285223126588 18.791193586337425 2 -2 -1
3687 195 1 -0.18 3.8485760250382897 10.135134002680196 16.940218039550846 2 2 2
5925 312 16 0.06 10.13156292674016 9.95579063665359 16.818519631827897 2 -2 -1
3699 195 13 0.06 5.7003435496306905 11.096189571530791 19.072502625901894 2 2 2
3454 182 15 0.06 9.683567601013312 4.752083274208923 11.976000820921097 1 0 2
487 26 12 0.06 3.411162061841541 13.40810009553133 17.403483886695756 1 0 0
805 43 7 0.06 7.035109175549683 8.046641453994532 13.59021346698264 1 2 -1
4083 215 17 0.06 1.5826512912364397 6.497400227607595 12.945565661199108 2 0 1
813 43 15 0.06 8.916451684425024 12.333916667958748 15.26875559805661 1 2 -1
4462 235 16 0.06 10.654131907504485 2.3578445001082375 16.972612442656985 2 -1 0
3698 195 12 0.06 4.966012873414085 10.220343941392887 20.203676132797717 2 2 2
4451 235 5 0.06 11.427788376563784 1.629747859164353 17.117645955346326 2 -1 0
3696 195 10 0.06 3.448377601416862 9.098071304927062 18.70762418946489 2 2 2
3691 195 5 0.06 7.2624961601368465 9.168322772244975 19.882645991222617 2 2 2
3702 195 16 0.06 6.913626648056997 8.949616162865093 20.892706335260534 2 2 2
799 43 1 -0.18 6.979505999521249 8.934908282926603 13.076801761908815 1 2 -1
804 43 6 -0.9 7.7339145547051595 13.683785455269497 17.122363475079514 1 2 -1
3802 201 2 -0.12 11.10551698622865 12.13840805757157 12.761488747825723 1 -1 1
811 43 13 0.06 6.61473633540781 10.2721468619637 15.350066341187187 1 2 -1
5914 312 5 0.06 11.086930334523686 9.7493011463237 17.297709148407982 2 -2 -1
809 43 11 0.06 8.941426005153808 9.90882692505617 13.325791279996384 1 2 -1
3695 195 9 0.06 4.044177208424955 11.172492232602256 16.57542672999327 2 2 2
815 43 17 0.06 6.203993034930558 12.380567843293436 16.53129912126768 1 2 -1
3704 195 18 0.36 8.708168442841178 7.942277960188563 20.318502763095236 2 2 2
802 43 4 -0.12 7.858363073624969 12.04177982789134 15.305973601958295 1 2 -1
817 43 19 0.36 6.944390863324657 14.288524424341325 16.925432040451824 1 2 -1
3810 201 10 0.06 10.248587956009258 12.017693397036355 13.490781799139368 1 -1 1
803 43 5 0.06 7.256578746582123 12.318663709000013 16.719450041509916 1 2 -1
4506 238 3 -0.12 6.355901498564669 2.1761149672940183 16.551997098010734 -2 0 -1
2163 114 16 0.06 8.111994412732574 5.680357387644491 21.42591643941825 1 2 -1
4216 222 17 0.06 11.252294675473525 8.796714465415075 20.88916632748422 0 1 -1
6436 339 14 0.06 1.8359395808833985 9.527004372716775 20.181360412773977 1 0 1
5686 300 5 0.06 11.352098257668352 14.59613440683092 18.758479439802873 1 1 1
3808 201 8 0.06 11.282356175462093 10.256049044943536 11.580000419690844 1 -1 1
4081 215 15 0.06 1.6617400884996414 8.704087701512117 11.808782936989354 2 0 1
1704 90 13 0.06 4.246903245722351 4.390728615175938 20.800957091083276 0 0 0
816 43 18 0.36 7.84499248281247 13.872095763381434 18.12832879089254 1 2 -1
695 37 11 0.06 5.5514515723556785 11.607108981452262 11.857516402520194 0 2 -1
1098 58 15 0.06 6.8337706460249095 12.246886277279987 21.539765537682666 1 -1 0
5175 273 7 0.06 1.584395799642739 3.856903927592295 11.532859964970514 1 2 1
1583 84 6 -0.9 7.9607636692719685 14.855034757646306 20.34714018066776 0 0 0
2159 114 12 0.06 8.131755746695159 3.263842632430747 21.531090356944944 1 2 -1
3449 182 10 0.06 6.583061784685836 3.800430723104083 11.545153640814554 1 0 2
2152 114 5 0.06 7.816566258566185 5.802915165349098 22.44279845235437 1 2 -1
2164 114 17 0.06 8.716183891760885 5.736336187122189 23.114186696100564 1 2 -1
5804 306 9 0.06 3.9029892180365633 4.497792895334031 24.423016050353066 3 -1 -1
74 4 17 0.06 9.356598666022233 6.892229612224926 31.084858771394234 -1 0 -2
2151 114 4 -0.12 6.953014104597081 4.608578921388764 22.78098404280917 1 2 -1
44 3 6 -0.9 10.906213929163908 8.559168769351462 27.11157585061658 0 0 0
4954 261 14 0.06 7.203740456174752 6.768488241499538 29.736541751906262 1 0 -1
5797 306 2 -0.12 4.566584679470486 4.253924006582002 26.409009483979627 3 -1 -1
5798 306 3 -0.12 3.7744802829738564 2.9408752264527216 26.573150165229627 3 -1 -1
919 49 7 0.06 5.009494266473649 2.8776168139194285 31.471462315353012 0 0 -2
5799 306 4 -0.12 4.135059964714821 2.2532688239136216 27.837089519393487 3 -1 -1
4215 222 16 0.06 10.8349753371342 7.939422957107738 22.183813835000322 0 1 -1
5810 306 15 0.06 4.319415906733964 2.99533007003285 28.698916941992056 3 -1 -1
4950 261 10 0.06 8.097217919185898 7.110788316374348 27.198776926068863 1 0 -1
2150 114 3 -0.12 7.717431459776657 3.281821910152093 22.585893732227607 1 2 -1
42 3 4 -0.12 10.002267866440354 10.747684194278769 27.621271353335132 0 0 0
6499 343 1 -0.18 11.371468549945895 1.6512552537656429 31.31840662939315 0 1 0
5806 306 11 0.06 5.686403120896244 4.009621675291501 26.29622658812409 3 -1 -1
52 3 14 0.06 8.948518544188111 10.434261227780368 27.75996178734871 0 0 0
2160 114 13 0.06 8.690304172863112 3.433208165710308 23.134024340436568 1 2 -1
62 4 5 0.06 9.821413046163364 7.550316810084114 30.292500846780477 -1 0 -2
2157 114 10 0.06 6.577200275187804 2.206937530306606 24.133731812135153 1 2 -1
5805 306 10 0.06 4.691025634763559 4.706470714224114 27.46617738614552 3 -1 -1
5807 306 12 0.06 4.035443586059572 2.379822652008153 25.64244332942187 3 -1 -1
5811 306 16 0.06 6.277405516049912 2.002112302517114 27.609376283170707 3 -1 -1
39 3 1 -0.18 9.988673132448584 14.694160485450194 28.1157443672092 0 0 0
2227 118 4 -0.12 4.866188017560967 12.632491414320524 31.338797454919487 2 1 -1
2149 114 2 -0.12 6.898239258163563 2.1055496458968004 23.12279578760697 1 2 -1
1476 78 13 0.06 1.689258569098913 7.001572168777116 27.102984115787816 1 1 -1
5808 306 13 0.06 2.731061859587017 3.2439251441621204 26.52532735210822 3 -1 -1
914 49 2 -0.12 7.154237686019362 2.4316082727209705 31.434100969422364 0 0 -2
3256 172 7 0.06 7.410718076208838 14.264376300729163 25.282818339274232 2 0 0
2232 118 9 0.06 6.706835482812748 10.99132620435054 27.616209580579792 2 1 -1
5796 306 1 -0.18 3.9354114223965264 5.180489186826852 25.319506452014185 3 -1 -1
61 4 4 -0.12 10.686958088259317 8.620707452448396 30.855459582420053 -1 0 -2
1102 58 19 0.36 10.207085881651578 11.067766990170654 22.344582886995994 1 -1 0
2161 114 14 0.06 6.483121795952072 4.558436062026915 23.780394232602195 1 2 -1
923 49 11 0.06 7.2895989690063 2.4717297346449976 30.276477128523517 0 0 -2
6474 341 14 0.06 1.8147153420839843 12.392322808067139 30.29382442236067 0 0 -1
2158 114 11 0.06 5.9259394396366645 2.014844936280874 22.61713395636304 1 2 -1
1244 66 9 0.06 10.617121327328588 3.6172964707420325 26.040705983278922 1 0 0
1084 58 1 -0.18 3.9948412775396838 12.736014086329421 21.83775690552687 1 -1 0
56 3 18 0.36 10.971235575927938 8.320352132288772 28.102791666683235 0 0 0
6440 339 18 0.36 1.7469467258990656 10.470306225405311 22.34042120299338 1 0 1
6438 339 16 0.06 2.1484757017790503 8.198639559738542 22.151803201217916 1 0 1
2238 118 15 0.06 4.425820747750619 13.556796101125292 31.15268811957452 2 1 -1
1475 78 12 0.06 3.197847152453475 7.601472276116373 27.53899261464543 1 1 -1
4955 261 15 0.06 5.82901384991842 6.124126959457791 29.08469726937709 1 0 -1
1089 58 6 -0.9 9.38733970557822 11.664182657396623 22.05951259343218 1 -1 0
1246 66 11 0.06 9.83002669758147 3.423843726915167 28.546955002765053 1 0 0
1693 90 2 -0.12 2.4633451357415703 4.580822624488508 21.814863848714644 0 0 0
1464 78 1 -0.18 2.1830424418158536 8.980968813208513 25.391554236172546 1 1 -1
53 3 15 0.06 10.450581703170622 10.690504116445261 28.629558532739566 0 0 0
1243 66 8 0.06 9.006105727442957 3.0245321298720986 25.48853671658112 1 0 0
1237 66 2 -0.12 9.39131561981634 2.8668874558599624 27.71994719060357 1 0 0
5289 279 7 0.06 2.111687690714861 14.85192768886176 30.07974052444972 -1 0 0
1245 66 10 0.06 8.314059414466191 2.7078829489019904 28.077243870914543 1 0 0
75 4 18 0.36 11.433432888137684 6.38807514628956 29.714392220617043 -1 0 -2
1703 90 12 0.06 3.941292656629832 3.17985292217704 22.010071013614024 0 0 0
60 4 3 -0.12 9.91933163160714 9.69862613443272 31.51020825057081 -1 0 -2
1468 78 5 0.06 1.9992739865825346 6.494129944173233 29.758250383368956 1 1 -1
1479 78 16 0.06 3.019367281133115 6.276075120860828 29.663736755238244 1 1 -1
4951 261 11 0.06 6.56656231172518 6.514016081124696 26.452568368596925 1 0 -1
2237 118 14 0.06 4.201359357159598 11.780347765586553 31.325386827226424 2 1 -1
2231 118 8 0.06 5.1960352021762795 11.49487329013008 26.78829558688451 2 1 -1
43 3 5 0.06 10.810281551353446 9.947932253325744 26.63734318734592 0 0 0
1242 66 7 0.06 9.263634803280233 4.644702608880886 26.19427318465065 1 0 0
2162 114 15 0.06 6.093342057140568 4.564298185776625 22.19259676876643 1 2 -1
1238 66 3 -0.12 9.994454746682427 1.4929783942095103 27.86577002499487 1 0 0
1236 66 1 -0.18 9.520439009288324 3.5249015417353964 26.267520669438532 1 0 0
4959 261 19 0.36 4.706695165924654 6.088118359506259 31.27957925984985 1 0 -1
1248 66 13 0.06 11.040805741308331 1.5605343230713098 27.616443108239835 1 0 0
2235 118 12 0.06 6.319660441381212 13.259509088760653 29.877234066029626 2 1 -1
4945 261 5 0.06 5.445623682099578 7.785027419138985 30.49009284951121 1 0 -1
4957 261 17 0.06 6.050951689447193 8.597933338958718 30.82054239256673 1 0 -1
4944 261 4 -0.12 6.226760919513255 7.049740144806461 29.317279071695978 1 0 -1
5803 306 8 0.06 2.915239230982893 5.462064173816584 25.637909042300773 3 -1 -1
1093 58 10 0.06 3.9108427821550853 12.429475960973411 24.020180238343134 1 -1 0
5802 306 7 0.06 4.595995359798435 5.947832233594882 25.025227024246096 3 -1 -1
1472 78 9 0.06 2.3980157808928424 10.06676569917205 25.12885067370068 1 1 -1
3257 172 8 0.06 5.7780899551817875 14.517829971352928 25.842829765724716 2 0 0
48 3 10 0.06 8.583346430126465 13.052615374216462 28.6893057537513 0 0 0
1097 58 14 0.06 7.298709351486467 12.96231410879976 23.017216875153956 1 -1 0
1087 58 4 -0.12 7.004155083474942 11.99379212783685 22.57636562128369 1 -1 0
1474 78 11 0.06 2.339419373104484 9.909912576582798 27.309700120742367 1 1 -1
1100 58 17 0.06 8.551899192179057 11.129230512391635 23.821454002099784 1 -1 0
1095 58 12 0.06 5.455025953318149 10.485745026697632 23.05783106313037 1 -1 0
4953 261 13 0.06 7.107893988783596 8.885457155101781 28.328360029685445 1 0 -1
49 3 11 0.06 10.364318566501504 12.972488211373191 29.13441329824685 0 0 0
1465 78 2 -0.12 1.775200176152669 9.078877715242712 26.85235945577731 1 1 -1
46 3 8 0.06 10.972124732271658 14.647878474800017 27.885907185920182 0 0 0
2166 114 19 0.36 6.230812529792582 7.071941367014007 22.205966089091884 1 2 -1
41 3 3 -0.12 9.975154921871606 12.183610473976424 27.20656070435807 0 0 0
2233 118 10 0.06 4.468241518316096 11.099742658827015 28.82230310744689 2 1 -1
520 28 7 0.06 9.626878649660283 13.808155204023869 23.492528407943215 0 -1 3
2236 118 13 0.06 6.564102949864771 11.613809256358376 30.4765068549221 2 1 -1
51 3 13 0.06 9.381132857719976 12.327720015675078 26.347881514903214 0 0 0
73 4 16 0.06 8.941305823670492 7.941987251848184 29.758277892038958 -1 0 -2
1471 78 8 0.06 3.222686338991506 8.621979753023286 25.342157288688135 1 1 -1
63 4 6 -0.9 10.608922144745701 6.822062660262775 29.323373128443237 -1 0 -2
2234 118 11 0.06 4.424912758709445 12.803917035218266 28.41940239331538 2 1 -1
1466 78 3 -0.12 2.1219287259479627 7.801634585536675 27.59760106865677 1 1 -1
1094 58 11 0.06 5.035039831436611 13.622027940241196 23.592312072275714 1 -1 0
76 4 19 0.36 10.067206730492497 6.002126291028424 29.07739678658959 -1 0 -2
1096 58 13 0.06 6.071943888984353 11.346786495841622 24.415302553014016 1 -1 0
514 28 1 -0.18 10.329997543926005 14.684401826037613 23.390827709855103 0 -1 3
2153 114 6 -0.9 7.1415721616671375 7.035781945674075 22.58213560325875 1 2 -1
2226 118 3 -0.12 5.796696967022929 12.370876462577789 30.126651407593954 2 1 -1