LAMMPS data file via write_data, version 29 Aug 2024, timestep = 1000000, units = real

5831 atoms
17 atom types
5831 bonds
17 bond types
10633 angles
31 angle types
15435 dihedrals
45 dihedral types
3430 impropers
10 improper types

3.5848960050971606 42.76822399490432 xlo xhi
5.395732269798405 43.10093773020084 ylo yhi
4.75284704561086 43.90289295437745 zlo zhi

Masses

1 12.011
2 12.011
3 12.011
4 12.011
5 12.011
6 12.011
7 15.999
8 1.008
9 1.008
10 1.008
11 1.008
12 1.008
13 1.008
14 1.008
15 1.008
16 1.008
17 1.008

Pair Coeffs # lj/cut/coul/long

1 0.066 3.5
2 0.066 3.5
3 0.066 3.5
4 0.08 3.5
5 0.076 3.55
6 0.066 3.5
7 0.17 3
8 0.03 2.5
9 0.03 2.5
10 0.03 2.5
11 0.03 2.5
12 0.03 2.5
13 0.03 2.5
14 0.03 2.42
15 0.03 2.5
16 0.03 2.5
17 0 0

Bond Coeffs # harmonic

1 268 1.529
2 268 1.529
3 317 1.51
4 549 1.34
5 268 1.529
6 450 1.37
7 340 1.09
8 340 1.09
9 340 1.09
10 340 1.09
11 340 1.09
12 340 1.09
13 340 1.08
14 340 1.09
15 340 1.09
16 553 0.945
17 317 1.51

Angle Coeffs # harmonic

1 58.35 112.7
2 63 111.1
3 70 124
4 58.35 112.7
5 35 117
6 37.5 110.7
7 37.5 110.7
8 37.5 110.7
9 37.5 110.7
10 37.5 110.7
11 37.5 110.7
12 35 120
13 37.5 110.7
14 37.5 110.7
15 35 109
16 35 109.5
17 70 123
18 70 124
19 35 117
20 37.5 110.7
21 33 107.8
22 37.5 110.7
23 33 107.8
24 35 109.5
25 33 107.8
26 35 109.5
27 35 109.5
28 63 111.1
29 33 107.8
30 37.5 110.7
31 37.5 110.7

Dihedral Coeffs # opls

1 1.3 -0.05 0.2 0
2 0.346 0.405 -0.904 0
3 1.3 -0.05 0.2 0
4 0 0 0 0
5 0 0 0.318 0
6 0 0 0.318 0
7 0 0 0.318 0
8 0 14 0 0
9 0 0 0.318 0
10 0 0 0.3 0
11 1.3 -0.05 0.2 0
12 0 0 0.3 0
13 0 0 0.3 0
14 0 0 0 0
15 0 0 0.366 0
16 0 0 0.3 0
17 0 0 0.3 0
18 0 0 -0.372 0
19 0 0 0.3 0
20 0 0 -0.372 0
21 0 0 0.3 0
22 0 0 0.318 0
23 0 0 -0.372 0
24 0 0 -0.372 0
25 0 0 0.3 0
26 0 0 0.3 0
27 0 0 0.3 0
28 0 0 0.3 0
29 0 0 0.3 0
30 0 0 0.3 0
31 0 0 0.3 0
32 0 0 0.318 0
33 0 0 0.366 0
34 0.346 0.405 -0.904 0
35 0 0 0.3 0
36 0 0 0.3 0
37 0 0 0.3 0
38 0 0 0.3 0
39 0 0 0.366 0
40 0 0 0.3 0
41 0 14 0 0
42 0 14 0 0
43 0 0 0.366 0
44 0 0 0.3 0
45 0 14 0 0

Improper Coeffs # cvff

1 15 -1 2
2 0 -1 2
3 0 -1 2
4 0 -1 2
5 0 -1 2
6 0 -1 2
7 0 -1 2
8 15 -1 2
9 0 -1 2
10 0 -1 2

Atoms # full

857 51 7 -0.53 10.524059824670648 6.630773689089998 7.607974133210311 0 0 0
1105 65 17 0.45 9.016877901697836 8.650219207482442 7.302201417130023 0 0 0
854 51 4 0.08 10.908170824198189 7.618738043967882 8.401446625377687 0 0 0
855 51 5 -0.115 10.556955173285184 7.710771073761789 9.730804454631159 0 0 0
864 51 14 0.115 9.902723582492722 6.953609302927518 10.172263272494384 0 0 0
1095 65 7 -0.53 8.618772914620099 9.36563754409409 6.854261881684286 0 0 0
5166 304 15 0.06 6.919532427483251 9.155732433099235 8.564035571326368 1 0 0
5157 304 6 -0.12 6.0542589226269605 8.793167166911823 9.124672523476681 1 0 0
5156 304 5 -0.115 5.191594278255829 10.007513268953122 9.316986081607496 1 0 0
5161 304 10 0.06 7.415677560206195 9.62511928312724 11.46515390401826 1 0 0
5152 304 1 -0.12 6.305236784949299 8.023586182665602 10.426148847874083 1 0 0
5160 304 9 0.06 7.0573150898377826 7.291439476731123 10.24731947550717 1 0 0
5167 304 16 0.06 5.597199538121439 8.112742255022248 8.437742060640716 1 0 0
853 51 3 -0.12 11.77046159057365 8.641113482317191 7.695375193829517 0 0 0
265 16 10 0.06 10.095308645480095 9.221472530854326 13.375943332665894 0 0 0
266 16 11 0.06 9.305947291927499 7.626519335611835 13.563848499754156 0 0 0
5153 304 2 -0.12 6.576072902483439 8.917816601109664 11.629883335283573 1 0 0
257 16 2 -0.12 9.7158148948435 8.49757502707984 14.110088519353617 0 0 0
856 51 6 -0.12 11.028198697894439 8.828163232350507 10.642248956656147 0 0 0
5162 304 11 0.06 6.78898651003794 8.317091788954027 12.502654557763599 1 0 0
851 51 1 -0.12 12.2801023510824 9.546179638885416 10.067050164110594 0 0 0
863 51 13 0.06 11.227345793824327 9.041000442749041 6.821465999162475 0 0 0
862 51 12 0.06 12.664466288780146 8.195758742721507 7.179984259642723 0 0 0
1200 71 10 0.06 6.190702386438888 15.550168796825432 5.902702996490066 0 0 0
861 51 11 0.06 11.311737866745633 10.599632152538913 8.479177634670721 0 0 0
5155 304 4 0.08 4.94823519602713 10.549510505393595 10.522113747767314 1 0 0
5154 304 3 -0.12 5.419083830100631 9.938161403363281 11.835793590593779 1 0 0
1075 64 4 0.08 11.926314972336518 15.385386728105024 7.4742330289234715 0 0 0
866 51 16 0.06 10.234037359389992 9.447031232174542 11.028642936228625 0 0 0
5163 304 12 0.06 5.737619679276346 10.638996495034455 12.602943221855327 1 0 0
865 51 15 0.06 11.405363110688308 8.318252131751212 11.54080392339701 0 0 0
852 51 2 -0.12 12.111882763947802 9.889332221840384 8.5672243800332 0 0 0
5164 304 13 0.06 4.539733084767052 9.365050564197569 12.147297559622217 1 0 0
1092 65 4 0.08 8.134558822701761 8.856705610988493 5.686982317918416 0 0 0
985 58 16 0.06 4.001575809477999 17.115025202303883 6.797558367815849 0 0 0
5159 304 8 0.06 5.475522219366099 7.3374221870718825 10.787721947966698 1 0 0
1193 71 3 -0.12 7.304643645814663 13.68666398779647 5.28675264653553 0 0 0
867 51 17 0.45 10.961859306106259 5.747175895518017 7.6366281906484055 0 0 0
2040 120 17 0.45 11.212981761970783 17.399280570170998 5.60864175067705 0 0 0
44 3 10 0.06 3.8413757865201816 6.599384878000438 13.920594779389429 0 0 0
263 16 8 0.06 7.844666697434722 9.66481302819191 14.41986488865886 0 0 0
1183 70 10 0.06 3.8086628462420036 8.437333302891346 6.659693624236742 0 0 1
1958 116 3 -0.12 7.5196639705888035 16.0420162899531 14.528111492552855 0 0 0
1204 71 14 0.115 6.913420066099777 12.146424927087482 8.431241438860482 0 0 0
5165 304 14 0.115 4.948330651932645 10.508281534436827 8.414708817030526 1 0 0
1393 82 16 0.06 5.822338446599476 5.851936971589972 7.89857259360415 0 1 1
1084 64 13 0.06 12.972124327503261 17.33797368323458 7.383201872055959 0 0 0
1207 71 17 0.45 8.527479968255683 11.046838098025471 6.653728605804436 0 0 0
3460 204 9 0.06 9.225729514920129 11.018963689177635 11.980895431897524 1 0 0
1741 103 7 -0.53 10.642929407876949 13.344026050339595 5.306740814806971 0 0 1
3468 204 17 0.45 6.57169972558285 14.59212778664367 10.986037050050314 1 0 0
1102 65 14 0.115 6.08905394641952 9.299418388599804 6.192226389476287 0 0 0
859 51 9 0.06 13.199997635541344 8.885392157632971 10.17442917988766 0 0 0
1972 116 17 0.45 5.48524520757115 17.704881099224714 13.94096852329918 0 0 0
1747 103 13 0.06 12.95213703606236 13.07040272860053 6.381719337162089 0 0 1
1076 64 5 -0.115 11.95915594607581 14.418916956986978 8.404025249677629 0 0 0
1078 64 7 -0.53 10.856221313007119 15.571434193827121 6.577104365889914 0 0 0
1962 116 7 -0.53 6.2578048133182875 17.711114479510627 13.330335364621167 0 0 0
4882 288 3 -0.12 7.738874960897446 17.451013473172402 9.39393356777527 1 0 0
1194 71 4 0.08 7.611203616479617 12.747762057213848 6.459450795948314 0 0 0
1737 103 3 -0.12 12.981668301417471 12.814051044387757 5.318211403394649 0 0 1
268 16 13 0.06 11.581334676437153 7.395423783313904 14.414641643549542 0 0 0
1202 71 12 0.06 8.076560945638036 14.333946793869732 4.876405810019413 0 0 0
846 50 13 0.06 7.6090834460657 6.1584651339958905 12.422186392087337 0 0 0
1738 103 4 0.08 11.6184585292072 12.496784457434863 4.830615598752373 0 0 1
1192 71 2 -0.12 6.056268324995036 14.59371541348366 5.4530450469230844 0 0 0
4885 288 6 -0.12 10.521136106951262 17.443557592294354 10.621360477246448 1 0 0
4881 288 2 -0.12 8.998213557526398 17.686818318373273 8.617296452451871 1 0 0
1196 71 6 -0.12 5.357862211862514 13.391640625025419 7.443955651274379 0 0 0
1197 71 7 -0.53 8.789853552038164 12.026518681806929 6.499024720979325 0 0 0
858 51 8 0.06 12.491090897839866 10.406133398155223 10.644701628206231 0 0 0
1751 103 17 0.45 9.955839152805098 12.819431827117045 5.698542300424665 0 0 1
4891 288 12 0.06 7.099220196973262 16.762517225001698 8.792991161159557 1 0 0
1199 71 9 0.06 4.078871386257796 14.418965720811874 6.096308212365261 0 0 0
1206 71 16 0.06 4.6064711425239455 12.850061072543609 7.917232975721008 0 0 0
4889 288 10 0.06 9.348115616344145 16.787360759007953 8.121994452633093 1 0 0
4893 288 14 0.115 9.419987740462835 16.33961324392815 12.22394225875551 1 0 0
3455 204 4 0.08 7.454244164443882 13.15402871866631 11.358457228843791 1 0 0
2151 127 9 0.06 12.293972578846045 13.991852131977058 13.037566931053824 0 0 0
1085 64 14 0.115 11.110139119211624 13.792074997887395 8.39691703989932 0 0 0
4884 288 5 -0.115 9.249876926530138 16.843764596010285 11.301330473517815 1 0 0
1191 71 1 -0.12 4.920031409202968 13.81777543326741 6.033230337663504 0 0 0
1088 64 17 0.45 10.665855222625634 14.763722244391026 6.187123136787326 0 0 0
1101 65 13 0.06 9.799334402659092 7.617090396267613 5.154601120511629 0 0 0
3453 204 2 -0.12 9.986224004259194 12.665078070221483 11.15120309379585 1 0 0
1205 71 15 0.06 5.573240378855192 14.208170336310515 8.016928654597304 0 0 0
3466 204 15 0.06 8.594350394426861 11.666687765928511 14.120611724861286 1 0 0
5387 317 15 0.06 4.416394447319832 16.602695017026505 10.446055315163395 1 0 0
5158 304 7 -0.53 4.289181816037838 11.724372294521977 10.76798124785713 1 0 0
3463 204 12 0.06 8.45629901079527 12.120900500265412 9.881481256472199 1 0 0
3459 204 8 0.06 10.756420397711787 11.463621078967513 12.72984658395351 1 0 0
3454 204 3 -0.12 8.7047161629805 13.060138237630298 10.378530687883146 1 0 0
2152 127 10 0.06 12.612481894593977 11.643730130316465 13.976592003585703 0 0 0
4883 288 4 0.08 8.034170046671466 16.83388541847191 10.709522126367048 1 0 0
3464 204 13 0.06 8.637889946506135 13.915846828091661 9.67364074120232 1 0 0
4886 288 7 -0.53 6.939611921049126 16.20251217475871 11.29704409145599 1 0 0
3461 204 10 0.06 10.74262123137632 12.313139643319456 10.442655953855493 1 0 0
3465 204 14 0.115 6.6322320711655145 13.114551590430427 13.301771807768333 1 0 0
1093 65 5 -0.115 6.800971249552402 8.95346219871213 5.4292112060412405 0 0 0
2143 127 1 -0.12 12.464787552608215 13.843153579492094 14.108867425091002 0 0 0
3458 204 7 -0.53 6.2812301812411775 13.67569958810465 10.917126372185251 1 0 0
3452 204 1 -0.12 9.795062279391498 11.887686431381685 12.425965724132723 1 0 0
4896 288 17 0.45 6.655835605203067 16.802896378916024 11.97670884526015 1 0 0
1195 71 5 -0.115 6.710673326788447 12.644054592142908 7.476743567064474 0 0 0
3456 204 5 -0.115 7.533927740739072 12.89971446733109 12.66600863679491 1 0 0
4894 288 15 0.06 11.323105355546677 16.726921439341442 10.431806931017228 1 0 0
3462 204 11 0.06 10.407965521330022 13.65030988762269 11.47514689568028 1 0 0
3457 204 6 -0.12 8.76303712033197 12.481038445109643 13.390370765010429 1 0 0
5168 304 17 0.45 4.937512788405568 12.410844082262354 10.965705942138616 1 0 0
3467 204 16 0.06 9.210109959225315 13.397294144641208 13.85075508845182 1 0 0
1198 71 8 0.06 4.6983424135344505 12.965256514662958 5.514465230291989 0 0 0
860 51 10 0.06 13.00083576269763 10.470547965825695 8.234465311744367 0 0 0
1968 116 13 0.06 7.495925028136474 15.377184240010946 13.653056275954 0 0 0
5381 317 9 0.06 4.047521544205322 16.573736070932664 12.560322701548966 1 0 0
1959 116 4 0.08 7.31789888462636 17.433459757854624 14.096572123614228 0 0 0
2157 127 15 0.06 12.933282953886666 15.945894832591911 14.390879416753483 0 0 0
5380 317 8 0.06 3.793661984467919 14.874720618280358 12.132196908453162 1 0 0
1391 82 14 0.115 4.221449199305602 5.5672441270288635 5.7166809569136685 0 1 1
2144 127 2 -0.12 13.146700780787915 12.525643880880077 14.322796251840016 0 0 0
1966 116 11 0.06 9.616181657919315 15.69111287325898 14.194489806816513 0 0 0
45 3 11 0.06 5.453567805482639 7.332855923758961 14.288779687202595 0 0 0
1074 64 3 -0.12 13.160346296933092 16.306039891728602 7.339097453622287 0 0 0
1077 64 6 -0.12 13.177833265622478 14.044397282346438 9.21151636640122 0 0 0
1087 64 16 0.06 12.887236478436492 14.366060942350948 10.22266387145653 0 0 0
283 17 11 0.06 3.678279621379468 12.701829206747869 14.151636881648631 0 0 0
1746 103 12 0.06 13.276368052675423 13.746364768087185 4.807480574794406 0 0 1
1086 64 15 0.06 13.302483508931521 13.014624808048307 9.145782227032303 0 0 0
2604 154 3 -0.12 10.57281763527035 6.890713959645956 20.317530616674325 0 0 1
2603 154 2 -0.12 10.285341352018893 6.668963476941076 21.805190854498164 0 0 1
2613 154 12 0.06 9.636089576803748 6.975333822713233 19.78384457969977 0 0 1
2602 154 1 -0.12 9.753273736744045 7.9563735233397015 22.470824061042006 0 0 1
2610 154 9 0.06 8.800652372733962 8.274579070500842 21.980190342639798 0 0 1
1125 67 3 -0.12 5.169814092456529 8.374292846918415 19.265903547857512 0 0 0
2618 154 17 0.45 11.565371745032696 7.8158017323721545 18.06363495577213 0 0 1
2605 154 4 0.08 11.373229705741892 8.176207916297146 20.028890235028538 0 0 1
2422 143 8 0.06 8.593814877650978 10.463630119956061 18.298147197712826 0 1 0
1126 67 4 0.08 4.829793722542138 9.023307839939703 20.57261789851064 0 0 0
2607 154 6 -0.12 10.87675161540086 9.010881111918641 22.428008779229316 0 0 1
2606 154 5 -0.115 11.491094251637538 9.10359165965546 21.015137820304044 0 0 1
2616 154 15 0.06 10.49367495116666 10.012474210602 22.654832890817065 0 0 1
1124 67 2 -0.12 5.574752627608895 6.899092795413933 19.56968134899042 0 0 0
1134 67 12 0.06 4.293321217788246 8.318450631077752 18.709762876398788 0 0 0
2609 154 8 0.06 9.336398489068891 7.799029655093767 23.486455844315284 0 0 1
1006 60 3 -0.12 3.8019673829284715 13.376462380574214 24.08410028100426 0 0 0
2617 154 16 0.06 11.615508293270723 8.681944782945877 23.138562494172902 0 0 1
262 16 7 -0.53 11.29790825519586 6.3095579344625 16.815068812614143 0 0 0
2608 154 7 -0.53 11.980351916111092 8.315644592256616 18.78407976829307 0 0 1
260 16 5 -0.115 9.025329840726974 7.313514890282753 16.715623684151275 0 0 0
269 16 14 0.115 8.775572099441739 6.848307222450724 17.607650112401828 0 0 0
2423 143 9 0.06 7.145107222939602 11.274762589957023 17.807698025594853 0 1 0
4199 247 17 0.45 3.7322663303690455 13.786108696217894 21.380446934314417 1 0 0
2615 154 14 0.115 12.198800555912145 9.926544250848384 20.876696923817594 0 0 1
1130 67 8 0.06 7.411002036570357 7.718902690135058 20.340283638807975 0 0 0
1135 67 13 0.06 6.009540005323439 8.847302107632954 18.761193517320216 0 0 0
2614 154 13 0.06 11.111153405031546 6.02177374998491 19.893202806000005 0 0 1
2612 154 11 0.06 11.18550261729088 6.374075625267571 22.256678152712688 0 0 1
1133 67 11 0.06 5.950199090910582 6.459321623944325 18.65063185712369 0 0 0
47 3 13 0.06 4.616590950723132 8.558842763117296 15.917702156250892 0 0 0
1123 67 1 -0.12 6.742662614517872 6.906838194611735 20.621136723598845 0 0 0
1127 67 5 -0.115 5.137713433920547 8.55525529893928 21.7792747061037 0 0 0
272 16 17 0.45 11.377055415602268 5.602674047082376 16.162345397126693 0 0 0
259 16 4 0.08 10.285987615786308 7.152703082667021 16.27215013261478 0 0 0
270 16 15 0.06 7.489726849044405 8.824403079101062 16.777826946962566 0 0 0
1338 79 12 0.06 13.307172962959735 15.851856637101733 18.295358363851246 0 0 0
3358 198 9 0.06 6.754238668790029 11.910229853456023 24.166402142729005 0 0 0
1128 67 6 -0.12 6.065765004417541 7.336505618519999 21.963583480765443 0 0 0
1139 67 17 0.45 3.8204271258330476 10.304317421917638 19.61058284642317 0 0 0
3364 198 15 0.06 8.340853664152196 10.466316059385898 23.393042359304236 0 0 0
1168 69 12 0.06 10.775115665356074 13.380788447332826 23.559772273821135 0 0 0
1132 67 10 0.06 4.666944167864281 6.305258248481271 19.882317390165102 0 0 0
1964 116 9 0.06 8.94834585490746 16.962479892959067 16.78598846743484 0 0 0
1131 67 9 0.06 7.250671460656799 5.984341406011049 20.65528324305926 0 0 0
1129 67 7 -0.53 4.022478026150836 10.117052508937391 20.531281432446967 0 0 0
2430 143 16 0.06 7.253801290293797 10.643102846731274 20.376023531166183 0 1 0
2611 154 10 0.06 9.606026372431222 5.8620896103411395 21.92420825863942 0 0 1
1020 60 17 0.45 4.594253717140099 11.320214800757384 21.83876226800972 0 0 0
1138 67 16 0.06 6.881893001539341 7.644681273481792 22.653811989399507 0 0 0
256 16 1 -0.12 8.692573519678582 9.175658344079638 14.967664819544714 0 0 0
264 16 9 0.06 9.167056953221394 9.960382291788616 15.578520147078802 0 0 0
2415 143 1 -0.12 8.026480692252125 11.346467205220389 18.418602792285483 0 1 0
1136 67 14 0.115 4.755858523038409 9.159782384328032 22.67583253307068 0 0 0
5026 296 11 0.06 12.717164258445267 6.634430791533084 23.99667525759568 1 0 0
258 16 3 -0.12 10.827289575431308 7.957460689881615 15.045870071898685 0 0 0
1331 79 5 -0.115 13.124627809797907 17.387175064039646 21.05127466313719 0 0 0
261 16 6 -0.12 8.04803293236488 8.237933571501491 16.028293625800078 0 0 0
42 3 8 0.06 5.459335328188701 6.2371260435230225 16.378790750884328 0 0 0
282 17 10 0.06 4.849533138071643 12.136768510224618 14.992254621456942 0 0 0
271 16 16 0.06 7.361445165189067 7.542889277532094 15.63489230545423 0 0 0
5180 305 12 0.06 4.432992225805994 17.775894419020446 17.458648519912202 1 0 0
1016 60 13 0.06 3.747802187469064 14.246705579819356 23.495221212498766 0 0 0
1340 79 14 0.115 12.821346577233207 17.377857482466652 22.07271804490413 0 0 0
1963 116 8 0.06 10.487880358937652 16.458076562157466 16.183432770762305 0 0 0
5396 318 7 -0.53 10.32775021474271 16.78447265334696 22.668261270418604 1 0 0
281 17 9 0.06 4.823189660762439 14.61188328583919 15.310391411298307 0 0 0
36 3 2 -0.12 4.516304127736115 7.019385917584767 14.634684765499381 0 0 0
274 17 2 -0.12 3.969735999815346 12.64107282279022 15.149322108364371 0 0 0
267 16 12 0.06 11.405501056366546 8.768522072090587 15.572965338808057 0 0 0
5402 318 13 0.06 9.164975696434972 17.507350741817852 20.293733694622127 1 0 0
404 24 13 0.06 13.166486967298727 12.040904336041741 18.844510810818733 0 0 0
1339 79 13 0.06 11.955888928826734 17.01467984666842 18.114668950739954 0 0 0
1160 69 4 0.08 12.81715181419704 12.895270863048305 23.554413719021824 0 0 0
5398 318 9 0.06 5.929675871143507 17.18718423920781 22.349541359171845 1 0 0
5392 318 3 -0.12 8.49977681216177 17.49954646252324 21.130763821559146 1 0 0
2425 143 11 0.06 8.945096421001573 12.489026611538254 16.769073207271873 0 1 0
2416 143 2 -0.12 8.858921079355289 12.58625486820241 17.87522855704561 0 1 0
35 3 1 -0.12 4.6827671617290845 5.83811440589756 15.625578847654692 0 0 0
5393 318 4 0.08 9.047413087268971 16.54282520428348 22.245639689499598 1 0 0
1007 60 4 0.08 3.6951400943085555 12.154854302131202 23.205997120186673 0 0 0
273 17 1 -0.12 4.124771500869689 13.958756024413143 15.86744236588165 0 0 0
5175 305 7 -0.53 3.884488934125529 17.42476653428378 14.785516892476346 1 0 0
2426 143 12 0.06 10.516146332682034 13.78574804421295 18.43469543401345 0 1 0
2148 127 6 -0.12 13.34726936712041 15.02089751118953 14.735169417730958 0 0 0
2420 143 6 -0.12 7.779423682932382 11.482236519776455 19.94003162720565 0 1 0
1010 60 7 -0.53 4.476851446444934 12.252639717463396 22.08309292169672 0 0 0
5390 318 1 -0.12 6.273602251728842 16.484063003593043 21.549612005551904 1 0 0
5403 318 14 0.115 8.5738506920728 14.978077033544619 23.633413965867668 1 0 0
2427 143 13 0.06 10.738514450671188 11.998275167831064 18.11677728545768 0 1 0
287 17 15 0.06 5.797926588625946 13.777264258819788 17.23261720749984 0 0 0
1173 69 17 0.45 12.35863059340832 12.099390571812197 22.05073283198742 0 0 0
2418 143 4 0.08 10.126365606555051 12.484363196879064 20.13702678445849 0 1 0
5391 318 2 -0.12 7.224030631554714 17.048324816464593 20.529175950427017 1 0 0
1956 116 1 -0.12 9.501216243937074 16.842386585281485 15.85834738350131 0 0 0
5406 318 17 0.45 10.365393446591481 17.031091642008622 23.598877006639476 1 0 0
1137 67 15 0.06 5.532553745698419 6.470904656318924 22.277799215996094 0 0 0
2417 143 3 -0.12 10.169073923113736 12.796762841713441 18.63015691142467 0 1 0
5405 318 16 0.06 7.011778821554208 14.460863829999797 21.591970108504608 1 0 0
408 24 17 0.45 13.354264135317921 9.207359232303872 18.745674404161424 0 0 0
5394 318 5 -0.115 8.268092433440746 15.579003286503003 22.77387963337395 1 0 0
277 17 5 -0.115 4.241900168987562 12.614812195468552 18.029428781287518 0 0 0
1329 79 3 -0.12 12.933195141760132 16.866030857582388 18.58035759582291 0 0 0
1965 116 10 0.06 8.968287321932877 14.753941914157169 15.526072075377444 0 0 0
1333 79 7 -0.53 11.484696643239612 15.925760064243685 20.36075659441068 0 0 0
37 3 3 -0.12 3.833532727507075 8.170926216920229 15.280891682547697 0 0 0
288 17 16 0.06 4.492077439062202 14.65740310789239 17.96038277375831 0 0 0
278 17 6 -0.12 4.641850899466078 13.822594338490703 17.26441380870351 0 0 0
1957 116 2 -0.12 8.928503895449293 15.730429864072715 15.001773020967937 0 0 0
5400 318 11 0.06 7.329037576061836 16.262926781700532 19.77100917051954 1 0 0
1343 79 17 0.45 11.0516032273969 16.285314747996132 21.155750282192027 0 0 0
286 17 14 0.115 4.44410020529115 12.545170731875743 19.06989893287755 0 0 0
2428 143 14 0.115 9.162484183174303 11.857675786035252 21.835406126827994 0 1 0
2431 143 17 0.45 11.269978922391406 13.93578987444001 20.428510870440185 0 1 0
4960 292 13 0.06 3.978820883358921 7.296186784153361 23.63566048177628 1 1 0
5399 318 10 0.06 6.79817526623825 17.919774345823264 20.061770100364974 1 0 0
2419 143 5 -0.115 9.05793503752876 11.89946137677946 20.75318451243623 0 1 0
2421 143 7 -0.53 11.15118016969884 13.068257299667987 20.848230040477635 0 1 0
2429 143 15 0.06 6.938884525964602 12.193729531947591 20.124036601461405 0 1 0
1163 69 7 -0.53 13.0069296028228 11.845156269202086 22.68216836030743 0 0 0
5397 318 8 0.06 5.377270665485273 16.18489386766339 20.972449009856437 1 0 0
5395 318 6 -0.12 6.864332704662509 15.296424443292514 22.279861992592974 1 0 0
1330 79 4 0.08 12.491680528299742 16.71353986734454 20.096506803973597 0 0 0
2424 143 10 0.06 8.200159266508045 13.425250795600274 18.08402718861599 0 1 0
5404 318 15 0.06 6.1687932550707 15.074490144358142 23.09206091241247 1 0 0
1967 116 12 0.06 6.778296915001343 15.713315911506607 15.353759496679729 0 0 0
1159 69 3 -0.12 11.494804551974664 12.908564305317313 24.250017564139043 0 0 0
2158 127 16 0.06 13.347824667736019 15.064488224433946 15.857009887481942 0 0 0
2150 127 8 0.06 11.431944087251278 13.886043335023562 14.5600807208366 0 0 0
4386 258 17 0.45 7.462174166679688 8.676948072601384 30.171919726164674 1 0 0
187 11 17 0.45 6.171505836434921 9.006815581764553 28.414739272863176 0 0 0
3356 198 7 -0.53 5.8986670513896 8.447453174043623 26.61030729295696 0 0 0
177 11 7 -0.53 6.058489514578939 8.76870334520802 29.308126060674866 0 0 0
4376 258 7 -0.53 8.174896552945563 8.80635605948315 30.800974165789043 1 0 0
4382 258 13 0.06 9.445076053641507 7.162188975120751 29.49226978023099 1 0 0
174 11 4 0.08 4.82116227125778 9.17171416604614 29.760352360593966 0 0 0
4380 258 11 0.06 10.290468069370839 8.105963334138604 27.300034690057558 1 0 0
4373 258 4 0.08 9.184018233517417 9.077413765850705 29.897467650765506 1 0 0
4372 258 3 -0.12 10.136870538072401 7.998793236091997 29.537708918847354 1 0 0
4371 258 2 -0.12 10.886971176368885 8.25010471389607 28.22548154275736 1 0 0
4381 258 12 0.06 10.811616446125246 7.773288449319452 30.327251156323705 1 0 0
5780 340 17 0.45 8.934520149326083 9.423820800295136 32.15365651443144 1 1 0
3366 198 17 0.45 5.683289221828865 7.790019548502519 25.92533464906873 0 0 0
3353 198 4 0.08 6.559498040532052 9.520346182177825 26.02661002863701 0 0 0
4375 258 6 -0.12 10.374401134089524 10.784431404015283 28.370175604334836 1 0 0
4374 258 5 -0.115 9.252310968419426 10.337521041522578 29.363165439277388 1 0 0
4370 258 1 -0.12 11.512111193502166 9.662922810886975 28.362478523449646 1 0 0
3352 198 3 -0.12 6.0748225391384825 10.852545829911152 26.523316967754106 0 0 0
4378 258 9 0.06 12.095080694098312 9.725131427951435 29.276195942916434 1 0 0
3362 198 13 0.06 5.90297499404657 10.796976002264667 27.60308489254016 0 0 0
4377 258 8 0.06 12.215666635056047 9.754625353264434 27.545088529567654 1 0 0
3361 198 12 0.06 5.1572562815619465 11.040109166072229 25.95741447648627 0 0 0
4379 258 10 0.06 11.617982782220468 7.437273724374366 28.024297847226805 1 0 0
173 11 3 -0.12 4.8538354024391595 9.749949881030034 31.152822592851145 0 0 0
182 11 12 0.06 5.021144989312638 8.856613673518689 31.795941107945062 0 0 0
5770 340 7 -0.53 9.334918623637805 9.928910363589772 32.85683301846744 1 1 0
3354 198 5 -0.115 7.529648822955079 9.348281854674353 25.080019232740273 0 0 0
3351 198 2 -0.12 7.124819009323522 11.91459501337906 26.242707731483847 0 0 0
183 11 13 0.06 5.693315096170243 10.429840713470817 31.247282830418516 0 0 0
5767 340 4 0.08 8.688308756186736 11.085926290881128 33.175640083801405 1 1 0
1122 66 17 0.45 7.943204704409918 16.521744025773188 28.079030164209325 0 0 0
296 18 7 -0.53 9.471742515303852 17.696117192623326 25.214484497786593 0 0 0
4954 292 7 -0.53 5.570183168563559 6.114272617234063 25.29223290329341 1 1 0
5231 308 12 0.06 7.846795514090663 5.609110853742491 27.13165269584462 1 0 0
5028 296 13 0.06 12.744449576518445 8.377452165635537 25.689273622682293 1 0 0
5228 308 9 0.06 10.275795105842676 6.057648202142002 26.258743319408083 1 0 0
4877 287 15 0.06 3.6488321312615626 8.006921385156957 33.84481248576804 1 1 0
2088 123 14 0.115 13.282189929946501 17.8742470756026 30.9524272600512 0 0 0
175 11 5 -0.115 3.697571306593525 9.110880727611793 28.977584038066627 0 0 0
881 52 14 0.115 7.472847662289482 5.958871522217023 32.90230402567387 0 0 0
5775 340 12 0.06 7.02577588835705 10.030902605423751 34.09341343831004 1 1 0
4959 292 12 0.06 3.8173933880802884 8.156383530271354 25.055974773083864 1 1 0
1165 69 9 0.06 11.481423681803452 15.66473300467457 24.379616077095637 0 0 0
4385 258 16 0.06 10.080428572572412 10.900705533216755 27.30077516919448 1 0 0
3360 198 11 0.06 7.933078313352651 11.964777178221555 26.964142915566747 0 0 0
3363 198 14 0.115 7.778810236195983 8.375365831918856 24.744097942303785 0 0 0
335 20 12 0.06 5.238887191298113 17.57345339646305 32.38979581959127 0 0 0
1166 69 10 0.06 10.468755715509289 14.085610461749406 25.900967295837564 0 0 0
340 20 17 0.45 8.277988802443891 17.90418382021638 33.00877286741968 0 0 0
1112 66 7 -0.53 7.8965898333280515 17.04026020948279 27.239676081276304 0 0 0
1630 96 15 0.06 13.146426410053904 6.560129335256937 30.680632179618975 0 1 0
2090 123 16 0.06 11.939220333864078 16.51085982268929 32.36194742073593 0 0 0
310 19 4 0.08 6.419166928700539 15.6760776734555 29.777252553149165 0 0 0
3365 198 16 0.06 9.32445679883089 10.558376916686868 24.862406455304807 0 0 0
2089 123 15 0.06 10.996547188370954 17.41418298695285 31.139229313652365 0 0 0
5081 299 15 0.06 4.144154014564361 6.734173720208792 30.756577335424524 1 0 0
303 18 14 0.115 11.322072762858618 17.855038714316173 26.87508439927049 0 0 0
307 19 1 -0.12 4.23241878896039 13.902495453959189 29.246606885326553 0 0 0
5072 299 6 -0.12 3.9384816486003587 5.833549026571812 30.175228100794914 1 0 0
1015 60 12 0.06 4.804260260033028 13.141013828114383 24.57915216463086 0 0 0
3355 198 6 -0.12 8.302501679597647 10.508771658813682 24.489010064316485 0 0 0
1167 69 11 0.06 12.06386609665424 13.379219165196012 26.356616211124617 0 0 0
1117 66 12 0.06 6.590401399160049 16.951090700200695 25.0763303091772 0 0 0
306 18 17 0.45 8.728349028432184 17.633409596541576 25.838711408278176 0 0 0
1116 66 11 0.06 3.6782570548089595 17.367404739922485 25.996166640557746 0 0 0
330 20 7 -0.53 7.783090635026365 17.16564234637657 32.757305755762474 0 0 0
2084 123 10 0.06 10.803005749634051 16.157412258701342 28.766452970735898 0 0 0
2086 123 12 0.06 12.988800467236358 14.971320995495022 27.773540529102963 0 0 0
3357 198 8 0.06 8.158116486089856 12.619648502242619 24.523242390011262 0 0 0
4383 258 14 0.115 8.485475807502002 11.10063114693665 29.470888929874494 1 0 0
2076 123 2 -0.12 11.228649545594203 15.216104004343336 29.13863445484546 0 0 0
1108 66 3 -0.12 5.897870569881862 16.9867499129045 25.935758415545582 0 0 0
2080 123 6 -0.12 11.666021633657346 16.583287160854972 31.2881003805921 0 0 0
5074 299 8 0.06 5.744805795045866 5.730248498821606 29.24125774583403 1 0 0
3350 198 1 -0.12 7.561050782340145 11.785872837975006 24.8077701182437 0 0 0
872 52 5 -0.115 7.914919567227213 5.636178575312929 33.830966881981965 0 0 0
3359 198 10 0.06 6.654020832245088 12.850860989280989 26.30810659077482 0 0 0
5777 340 14 0.115 9.8549604790887 12.148194573526776 31.84481265534204 1 1 0
5768 340 5 -0.115 9.075966998600943 12.20649095494509 32.53865875917279 1 1 0
1158 69 2 -0.12 11.474838522218022 13.865008549340448 25.531623422703685 0 0 0
1115 66 10 0.06 4.300994936620566 17.624659286517627 24.485893949470228 0 0 0
4384 258 15 0.06 10.834542668359884 11.733891052673636 28.70314731241976 1 0 0
2079 123 5 -0.115 12.924506993405824 16.977208187557153 30.55875225949835 0 0 0
326 20 3 -0.12 5.383541487113103 16.92486888448277 33.239738958573945 0 0 0
2077 123 3 -0.12 12.777697987412925 15.130858082523787 28.847443021481705 0 0 0
336 20 13 0.06 5.28511328227231 15.880975138342926 32.80762401101522 0 0 0
1850 109 14 0.115 12.931052626277225 13.520052967215713 33.01725895699937 0 0 0
2083 123 9 0.06 9.945878997230142 15.414472017585613 30.889202349683792 0 0 0
317 19 11 0.06 5.630894764675517 12.960667112676997 30.675162905322978 0 0 0
5769 340 6 -0.12 8.455492139912929 13.539691251270144 32.87585929747155 1 1 0
2085 123 11 0.06 10.707220083923886 14.360567084534713 28.660559635701773 0 0 0
1157 69 1 -0.12 12.071628455667398 15.179175701253682 25.115111659881315 0 0 0
327 20 4 0.08 6.809597278566092 17.04753677778514 33.701493429052434 0 0 0
4951 292 4 0.08 4.1928241529123 6.1215954224280305 25.439123478809133 1 1 0
313 19 7 -0.53 7.53285412287112 16.417744207462025 29.926693753227365 0 0 0
1164 69 8 0.06 12.157698531712105 15.78630367669386 25.975972594608805 0 0 0
323 19 17 0.45 7.714881876582863 16.463843599551478 30.858483251045396 0 0 0
184 11 14 0.115 3.766816138265217 8.663006150250288 27.94456589142199 0 0 0
1851 109 15 0.06 12.377617867582776 11.771798300027438 31.18870616223449 0 0 0
309 19 3 -0.12 6.665438421132466 14.241286694589109 29.25154673673525 0 0 0
320 19 14 0.115 5.010052898207441 17.135727469293126 30.446219522210125 0 0 0
312 19 6 -0.12 3.9202137458444644 15.28360368052476 29.90885101542119 0 0 0