LAMMPS data file via write_data, version 29 Sep 2021, timestep = 1000000

5831 atoms
17 atom types
5488 bonds
16 bond types
10290 angles
30 angle types
12348 dihedrals
36 dihedral types
3430 impropers
10 improper types

1.1985149925596432 41.8014850074372 xlo xhi
1.1985149925596432 41.8014850074372 ylo yhi
1.1985149925596432 41.8014850074372 zlo zhi

Masses

1 12.011
2 12.011
3 12.011
4 12.011
5 12.011
6 1.008
7 1.008
8 1.008
9 1.008
10 1.008
11 1.008
12 1.008
13 1.008
14 1.008
15 1.008
16 1.008
17 1.008

Pair Coeffs # lj/cut/coul/long/omp

1 0.066 3.5
2 0.066 3.5
3 0.066 3.5
4 0.066 3.5
5 0.066 3.5
6 0.03 2.5
7 0.03 2.5
8 0.03 2.5
9 0.03 2.5
10 0.03 2.5
11 0.03 2.5
12 0.03 2.5
13 0.03 2.5
14 0.03 2.5
15 0.03 2.5
16 0.03 2.5
17 0.03 2.5

Bond Coeffs # harmonic/omp

1 268 1.529
2 268 1.529
3 268 1.529
4 268 1.529
5 340 1.09
6 340 1.09
7 340 1.09
8 340 1.09
9 340 1.09
10 340 1.09
11 340 1.09
12 340 1.09
13 340 1.09
14 340 1.09
15 340 1.09
16 340 1.09

Angle Coeffs # harmonic/omp

1 58.35 112.7
2 58.35 112.7
3 58.35 112.7
4 37.5 110.7
5 37.5 110.7
6 37.5 110.7
7 37.5 110.7
8 37.5 110.7
9 37.5 110.7
10 37.5 110.7
11 37.5 110.7
12 37.5 110.7
13 37.5 110.7
14 37.5 110.7
15 37.5 110.7
16 33 107.8
17 37.5 110.7
18 33 107.8
19 37.5 110.7
20 33 107.8
21 33 107.8
22 33 107.8
23 33 107.8
24 37.5 110.7
25 37.5 110.7
26 37.5 110.7
27 33 107.8
28 33 107.8
29 33 107.8
30 37.5 110.7

Dihedral Coeffs # opls/omp

1 1.3 -0.05 0.2 0
2 1.3 -0.05 0.2 0
3 0 0 0.3 0
4 0 0 0.3 0
5 0 0 0.3 0
6 0 0 0.3 0
7 0 0 0.3 0
8 0 0 0.3 0
9 0 0 0.3 0
10 0 0 0.3 0
11 0 0 0.3 0
12 0 0 0.3 0
13 0 0 0.3 0
14 0 0 0.3 0
15 0 0 0.3 0
16 0 0 0.3 0
17 0 0 0.3 0
18 0 0 0.3 0
19 0 0 0.3 0
20 0 0 0.3 0
21 0 0 0.3 0
22 0 0 0.3 0
23 0 0 0.3 0
24 0 0 0.3 0
25 0 0 0.3 0
26 0 0 0.3 0
27 0 0 0.3 0
28 0 0 0.3 0
29 0 0 0.3 0
30 0 0 0.3 0
31 0 0 0.3 0
32 0 0 0.3 0
33 0 0 0.3 0
34 0 0 0.3 0
35 0 0 0.3 0
36 0 0 0.3 0

Improper Coeffs # cvff/omp

1 0 -1 2
2 0 -1 2
3 0 -1 2
4 0 -1 2
5 0 -1 2
6 0 -1 2
7 0 -1 2
8 0 -1 2
9 0 -1 2
10 0 -1 2

Atoms # full

1921 113 17 0.06 4.918295887624563 8.493375744065135 5.218498105733979 -1 -2 -1
2779 164 8 0.06 3.7858067459381233 5.405696449491462 8.64381125970731 2 1 2
1908 113 4 -0.12 4.253335402822477 6.514984450297536 5.040257509332337 -1 -2 -1
1906 113 2 -0.12 1.9122076947867828 7.753141792074334 5.351553141584826 -1 -2 -1
1667 99 1 -0.18 6.0030115064557386 10.494944060101309 8.769222995562773 -3 -4 1
2782 164 11 0.06 3.6283304283880273 7.446484931694437 9.432988230478774 2 1 2
876 52 9 0.06 3.711038275439149 3.4453866430090447 5.615534935673218 -4 0 -2
352 21 12 0.06 1.4892754998993338 9.883082084097953 3.2318511915436923 -1 -1 4
1909 113 5 -0.18 4.902163865140082 7.746840889005195 4.4316348473553 -1 -2 -1
343 21 3 -0.12 1.3674041620692263 10.798729283415224 2.7261648957214413 -1 -1 4
877 52 10 0.06 3.625024269655749 1.8385733281320462 4.853969479461987 -4 0 -2
1916 113 12 0.06 3.2294730891692915 6.940287492782744 6.8976687376581225 -1 -2 -1
348 21 8 0.06 3.9022612798301046 10.509137794169474 4.28161500572649 -1 -1 4
2777 164 6 0.06 3.094657554745253 3.861491793175776 9.361007507067908 2 1 2
1913 113 9 0.06 2.431445391631562 8.746237676233513 5.353746874413676 -1 -2 -1
874 52 7 0.06 2.4936523114075566 3.147414268423111 3.3765166451594273 -4 0 -2
1678 99 12 0.06 2.806122892081014 10.83648803918718 7.624213504714196 -3 -4 1
1907 113 3 -0.12 2.986533403960169 6.709095757429434 5.857100745646248 -1 -2 -1
2772 164 1 -0.18 3.5678799145961957 4.8511666441026255 9.58498838945211 2 1 2
5703 336 8 0.06 6.153422580330679 3.1925903364577084 7.998964293885251 2 0 3
1915 113 11 0.06 2.4951531821577073 5.778959121756527 5.926944593575775 -1 -2 -1
1668 99 2 -0.12 4.826758429669526 10.92102585523299 7.868790139741954 -3 -4 1
1918 113 14 0.06 4.907707158029864 6.124816530774721 5.806723575823189 -1 -2 -1
1675 99 9 0.06 5.0578482306106425 10.467396444982825 6.9399998471054305 -3 -4 1
1917 113 13 0.06 4.100822161842419 5.660784617253524 4.3961661420840015 -1 -2 -1
879 52 12 0.06 3.440684123012049 1.7952365254042757 7.3185821488288285 -4 0 -2
875 52 8 0.06 1.763448677277308 4.232467862186473 4.6721432676647625 -4 0 -2
2774 164 3 -0.12 3.1495201594116002 7.119045253734571 10.367536844407281 2 1 2
869 52 2 -0.12 3.048606447934154 2.6261120760390213 5.385098548517745 -4 0 -2
1919 113 15 0.06 4.306964068725836 8.045945521818288 3.6193931395128245 -1 -2 -1
868 52 1 -0.18 2.045910963774237 3.2148213582565055 4.361487005864561 -4 0 -2
1677 99 11 0.06 3.3757491489842733 9.766001463733803 8.942324456145277 -3 -4 1
1920 113 16 0.06 5.924943866891072 7.543580532238458 4.060850441088381 -1 -2 -1
2773 164 2 -0.12 2.5520145623065984 5.722213904244581 10.207912940038645 2 1 2
1673 99 7 0.06 5.949578536513295 9.524838743105423 9.214199121435923 -3 -4 1
1669 99 3 -0.12 3.4689997110844515 10.74118093333981 8.490948872265648 -3 -4 1
870 52 3 -0.12 2.5726495163305767 2.021750721929029 6.732862774843235 -4 0 -2
1683 99 17 0.06 1.6584292072628992 11.216839793109951 11.062361385890833 -3 -4 1
2778 164 7 0.06 4.526903558324159 4.720645920454899 10.094375406314988 2 1 2
1674 99 8 0.06 6.194760937822608 11.297297621561018 9.47983042680838 -3 -4 1
5367 316 12 0.06 5.321834353049834 2.176991028081432 10.56766085107858 2 -2 -2
878 52 11 0.06 2.1384101622201257 2.765816276146518 7.339380604224429 -4 0 -2
2780 164 9 0.06 2.328913934622497 5.240637282267315 11.159783926236901 2 1 2
2781 164 10 0.06 1.5732657869827755 5.6557056460053285 9.641224271018014 2 1 2
2775 164 4 -0.12 1.9707319679401927 8.09926210607485 10.765293430037104 2 1 2
5371 316 16 0.06 2.3759723612261316 2.1378910389001784 10.604047607228575 2 -2 -2
2785 164 14 0.06 2.5054049978745985 9.041606709038968 10.658556854430229 2 1 2
349 21 9 0.06 3.25252677282816 11.18150478185101 1.8738776737725802 -1 -1 4
1914 113 10 0.06 1.7560925151859694 7.648104296297616 4.274789519572316 -1 -2 -1
2783 164 12 0.06 3.9011874320194324 6.923023325418557 11.164754632740731 2 1 2
873 52 6 0.06 1.2126945022981863 2.586230058077655 4.1798085395539575 -4 0 -2
2784 164 13 0.06 1.2133601566723016 8.186296484335196 9.9801620171557 2 1 2
1813 107 11 0.06 3.054502668186291 8.131635067866211 16.602767636337948 1 0 0
5370 316 15 0.06 1.8719643725721822 1.7290574605365014 12.280416695970624 2 -2 -2
5359 316 4 -0.12 4.0335162698059825 1.3356225171179759 11.977507321025287 2 -2 -2
5526 326 1 -0.18 2.258926273261601 6.102637061989483 19.47728483782299 -3 2 4
1818 107 16 0.06 2.99965340903929 4.848384397365537 14.432214256317065 1 0 0
2776 164 5 -0.18 1.3223372576452552 7.903279263539144 12.126424681270562 2 1 2
5533 326 8 0.06 1.993084993613404 7.113510642591288 19.318864803803322 -3 2 4
5358 316 3 -0.12 5.395125995663156 1.9162861936797455 11.564340701846689 2 -2 -2
5534 326 9 0.06 3.965021087331795 6.32956080720256 20.969266549545864 -3 2 4
1805 107 3 -0.12 4.031248120695798 7.676102437490734 16.4850820964698 1 0 0
1815 107 13 0.06 4.962311586894845 6.3229108101349905 15.1018602407641 1 0 0
1812 107 10 0.06 5.0692668795651485 9.463569403424156 17.289887442857015 1 0 0
5365 316 10 0.06 5.633163663832441 2.840690379685875 13.475937825128458 2 -2 -2
1817 107 15 0.06 2.7507701012846506 5.122638966882471 16.207718461689748 1 0 0
3894 230 1 -0.18 6.110875146313585 9.49155919405334 12.539083923674198 3 -2 -1
3901 230 8 0.06 5.272531056927836 9.40731942100777 11.896208167895429 3 -2 -1
1811 107 9 0.06 4.926481065168286 9.403316031152011 15.525444650068756 1 0 0
5357 316 2 -0.12 5.698605811401675 3.1870915855038797 12.441691633766299 2 -2 -2
1806 107 4 -0.12 3.9709667086243416 6.772930371037765 15.222368242341034 1 0 0
1819 107 17 0.06 1.9577934830697188 6.17699675553005 15.072778075307534 1 0 0
5531 326 6 0.06 1.375672956850005 5.476751673567968 19.492210304776385 -3 2 4
1807 107 5 -0.18 2.878136004209722 5.647385969138584 15.220444838736558 1 0 0
5532 326 7 0.06 2.9109757360715385 5.698500774546282 18.715719567704806 -3 2 4
1814 107 12 0.06 4.15293486869095 7.063209826838385 17.3736196091498 1 0 0
3900 230 7 0.06 5.656832214338296 8.986354594178248 13.318894328053346 3 -2 -1
5360 316 5 -0.18 2.737808032303694 2.118087006123565 11.676670441575332 2 -2 -2
5372 316 17 0.06 2.8781471336839637 3.0611873574036226 12.116989504611011 2 -2 -2
1804 107 2 -0.12 5.088306197247624 8.812078950357987 16.42705323930516 1 0 0
5538 326 13 0.06 1.5581164732838382 8.303975141376746 21.409200190417877 -3 2 4
1816 107 14 0.06 3.949866476582696 7.445604408146382 14.337780172999672 1 0 0
5535 326 10 0.06 3.090403236652663 4.8701015965739085 20.870369740842722 -3 2 4
2788 164 17 0.06 2.052906183351491 7.946894599818922 12.95574662349017 2 1 2
5364 316 9 0.06 4.969796309127176 3.890288851317721 12.269720140545282 2 -2 -2
5527 326 2 -0.12 2.9955557438771567 5.889219517080864 20.764753261010696 -3 2 4
1399 83 5 -0.18 1.7046766251738807 11.335052330270615 26.067920216548156 0 -1 -1
1404 83 10 0.06 4.20818598335472 11.09087019230742 29.00155899809718 0 -1 -1
1398 83 4 -0.12 2.974353414713322 10.692836898197978 26.5983817484229 0 -1 -1
1407 83 13 0.06 3.20402912165708 9.935166684461718 25.90519475337996 0 -1 -1
1405 83 11 0.06 1.8899588514678758 9.475252175998401 27.971176851711853 0 -1 -1
1296 77 4 -0.12 5.69209661973272 10.593685626126229 22.933276024909823 -1 -1 5
4829 285 1 -0.18 2.4890250847555118 6.223144842105027 27.687444465842873 2 0 0
1397 83 3 -0.12 2.9099604089968283 9.788944847035017 27.874514937509915 0 -1 -1
4841 285 13 0.06 1.589530152265152 4.092836562264969 31.27415532610527 2 0 0
4831 285 3 -0.12 2.9629103188619244 4.9975675386936755 29.861405818188494 2 0 0
1305 77 13 0.06 5.2366059622398105 10.29648889358121 21.99297537214665 -1 -1 5
4834 285 6 0.06 2.1538706988035488 5.282128776942676 27.409500683250183 2 0 0
4835 285 7 0.06 3.515946412572035 6.4806801242861365 27.392490106177767 2 0 0
4839 285 11 0.06 4.088006163989175 5.169160883380391 29.87992643984225 2 0 0
1396 83 2 -0.12 3.3759118006867506 10.426541328328689 29.215415040111772 0 -1 -1
4842 285 14 0.06 1.9086866658403077 5.7668188803261575 31.641104278292946 2 0 0
1406 83 12 0.06 3.569324968791718 8.964190531215712 27.68999712911018 0 -1 -1
4830 285 2 -0.12 2.314781312065237 6.25355000622994 29.169939075558435 2 0 0
1843 109 7 0.06 1.6762520645830252 1.478586616947497 30.253101908825133 2 -3 -3
5528 326 3 -0.12 2.2429935548862856 6.372513272160376 22.01078145995186 -3 2 4
1395 83 1 -0.18 2.323980445444986 11.289540732644221 29.940730822921353 0 -1 -1
1402 83 8 0.06 1.6753084912212597 10.545148993152296 30.409943047172728 0 -1 -1
1299 77 7 0.06 5.832674048845469 6.112018702571662 24.25686793304477 -1 -1 5
5536 326 11 0.06 2.745961463947915 5.947380433701387 22.91348739696706 -3 2 4
5537 326 12 0.06 1.2766574806143967 5.846307578855706 22.075838829538203 -3 2 4
3093 182 16 0.06 4.516052978413483 2.140715257329325 28.677012048210287 0 2 -2
4838 285 10 0.06 2.656425952102116 7.229836191071479 29.58141775652716 2 0 0
1294 77 2 -0.12 5.981796415595134 8.203751820548751 23.514404397893774 -1 -1 5
1403 83 9 0.06 3.788278163868663 9.754981703531568 29.925834248212475 0 -1 -1
1300 77 8 0.06 4.364790806094452 7.018820644001057 24.413515330488337 -1 -1 5
4836 285 8 0.06 1.8262543151178905 6.933283206030584 27.287199959520272 2 0 0
1304 77 12 0.06 4.113775210075569 9.457027326632343 23.996121516291602 -1 -1 5
1295 77 3 -0.12 5.2225565615370275 9.535291978410422 23.90872420676374 -1 -1 5
5529 326 4 -0.12 2.2102609044224772 7.876148694141058 22.25307258974034 -3 2 4
1303 77 11 0.06 5.675740244071832 9.82307358671324 24.900230766175916 -1 -1 5
5168 304 17 0.06 1.5550364207832812 2.9943891540309364 23.699529297622615 1 -2 -4
5530 326 5 -0.18 1.5326075369703673 8.077178750039387 23.571415789229498 -3 2 4
5540 326 15 0.06 2.0076047469373455 7.558762675409161 24.364845690494285 -3 2 4
5164 304 13 0.06 1.2360717513223682 4.432461907025858 25.6811426999853 1 -2 -4
1293 77 1 -0.18 5.479166929101002 7.102567185810491 24.454763414096465 -1 -1 5
4840 285 12 0.06 2.8691860345651374 4.076088168708859 29.24780191298584 2 0 0
5542 326 17 0.06 1.5293129366212828 9.135645757032234 23.910579039265034 -3 2 4
1301 77 9 0.06 5.822376925141404 7.923786105039019 22.45534710517721 -1 -1 5
1298 77 6 0.06 5.770434420659253 7.392640519307378 25.471753239745166 -1 -1 5
13 1 13 0.06 5.727606523028058 6.0924784878256855 28.753009063659654 1 2 -3
4832 285 4 -0.12 2.3402838807844146 4.816790888609805 31.265543566278907 2 0 0
5539 326 14 0.06 3.1529460704879684 8.444681397671065 22.335909907419698 -3 2 4
3090 182 13 0.06 2.6693510075375073 1.363593848155952 27.34433378956819 0 2 -2
4837 285 9 0.06 1.293462591943479 6.119143558655857 29.470575712517995 2 0 0
5614 331 4 -0.12 2.605312706609866 1.566507532520849 35.0637631689776 2 5 -2
4131 243 17 0.06 1.27599844280279 10.135478775744492 35.73652795271173 0 2 3
357 21 17 0.06 2.3945744500392645 10.429332026618775 40.49351984321076 -1 -1 3
2853 168 14 0.06 4.9425009959620425 6.708895668659146 34.23169348672076 -1 1 2
4845 285 17 0.06 2.8313954107599013 4.203072069083699 33.20415350267933 2 0 0
1007 60 4 -0.12 6.174733990908296 7.000193748546504 40.97053496231516 3 2 -1
4566 269 10 0.06 3.766212296480179 10.569587935282268 36.20087239541681 1 2 -4
4119 243 5 -0.18 1.3763448256602049 9.759800668523644 34.704656794349134 0 2 3
4833 285 5 -0.18 3.3814381515042644 4.356312578222953 32.303160960518596 2 0 0
5623 331 13 0.06 3.642570000280379 1.7519686102049739 34.83830584740552 2 5 -2
1876 111 6 0.06 4.900447582481325 3.563796553806318 37.471494447186984 1 0 1
2856 168 17 0.06 3.9807364666724703 8.176490529064957 35.7595386738031 -1 1 2
1004 60 1 -0.18 5.478349434122206 9.630943953289576 39.70368047967244 3 2 -1
1010 60 7 0.06 4.751585573161181 10.417276868810946 39.43632221222197 3 2 -1
4129 243 15 0.06 2.4122577671241716 9.574102769756294 34.43617800297511 0 2 3
1013 60 10 0.06 5.995913509325247 10.288178527287096 41.65233891912114 3 2 -1
1005 60 2 -0.12 5.493229747572736 9.395194891598278 41.242916806638306 3 2 -1
2852 168 13 0.06 4.847129110587912 5.881530121128419 35.716177562513785 -1 1 2
2377 140 14 0.06 1.4408026811459216 4.508156610521191 37.48105791543409 0 0 4
2376 140 13 0.06 1.9605437694771144 5.79529251514972 36.43363711442559 0 0 4
4569 269 13 0.06 5.615466390445908 10.486461225414628 33.988442312766736 1 2 -4
2843 168 4 -0.12 5.344929449662384 6.664846659936579 35.22287378314019 -1 1 2
1012 60 9 0.06 4.512421899317041 9.116069825351016 41.68116427954048 3 2 -1
1011 60 8 0.06 5.104314873528696 8.772798036972816 39.11903549771753 3 2 -1
2380 140 17 0.06 2.949169562096121 6.283506618834464 38.40228827328835 0 0 4
4843 285 15 0.06 4.133542966650334 5.137045304664185 32.53293377103986 2 0 0
2368 140 5 -0.18 1.8900156456153558 6.374085119171291 38.34153044981897 0 0 4
1017 60 14 0.06 5.038496140386751 6.833023805021504 41.097308129728624 3 2 -1
4844 285 16 0.06 3.7934749498499123 3.4047931841601367 31.932036135476398 2 0 0
5626 331 16 0.06 1.682588747693032 1.8956866844880562 33.13529910345528 2 5 -2
2367 140 4 -0.12 1.2538202584382385 5.505875616185511 37.25189640146275 0 0 4
2855 168 16 0.06 5.193651377718208 7.815054879222686 37.099846429275324 -1 1 2
2844 168 5 -0.18 5.020322152635566 7.914538359247219 36.012049862874605 -1 1 2
1877 111 7 0.06 5.2754885600251455 5.168381450229434 38.001121626691436 1 0 1
2854 168 15 0.06 5.407037630169638 8.821444058667876 35.54978640746732 -1 1 2
5624 331 14 0.06 2.106935807200104 2.4688063890629786 35.38234352427204 2 5 -2
2379 140 16 0.06 1.8546582046549605 7.447635301962137 38.0269120779791 0 0 4
356 21 16 0.06 2.1053171739319922 8.864739982789324 41.35070634029687 -1 -1 3
1878 111 8 0.06 5.072142050371756 3.948622012374106 39.221277463496236 1 0 1
345 21 5 -0.18 1.6655719267434446 9.767213230151194 41.02880379189407 -1 -1 3
1871 111 1 -0.18 5.4279742065913705 4.081460443325099 38.2135091880373 1 0 1
2378 140 15 0.06 1.543084818778246 6.310344769295755 39.377207470766045 0 0 4
1884 111 14 0.06 6.228005203307051 1.2017791156466942 37.820394415745554 1 0 1
4008 236 13 0.06 3.1385474443951624 16.811484772273445 5.3907822618563985 0 0 1
4007 236 12 0.06 4.959999668623476 17.050070715757986 3.7714587424867885 0 0 1
3595 212 8 0.06 4.416942343271572 18.165461264712473 1.4270915842437921 0 0 3
4720 278 11 0.06 2.5973083859705084 14.756168743228898 9.352788989498459 5 0 1
4010 236 15 0.06 2.445011589443853 14.409877749552399 3.5498291839659295 0 0 1
4718 278 9 0.06 2.551817718876899 17.410773901071135 10.673246156307641 5 0 1
1679 99 13 0.06 2.969516557544492 12.814263670045543 8.66468875505924 -3 -4 1
350 21 10 0.06 2.548235455616549 12.570684922854072 2.440809607558683 -1 -1 4
3999 236 4 -0.12 3.457731294641472 15.808251807544154 4.944891916726328 0 0 1
574 34 13 0.06 5.593442076777375 18.494186166925758 7.410316920416646 0 4 -2
4006 236 11 0.06 4.891835524325778 15.336186287134574 3.374784281260639 0 0 1
4004 236 9 0.06 5.944522429088545 16.29793597691883 6.046323641114393 0 0 1
1676 99 10 0.06 5.0669942275554565 11.974418560067747 7.759083213118353 -3 -4 1
3998 236 3 -0.12 4.779591783629732 16.002379773274694 4.234810733302786 0 0 1
4711 278 2 -0.12 3.017152228311581 16.47303851728588 10.543867907165314 5 0 1
4717 278 8 0.06 4.692504451551124 16.925632047142496 9.16907653664222 5 0 1
566 34 5 -0.18 4.123825796631605 20.169166395398925 7.704094968997684 0 4 -2
565 34 4 -0.12 5.620375843598316 19.584455021787605 7.60697469086103 0 4 -2
1670 99 4 -0.12 3.0340412503784577 11.95203933208522 9.362051105110705 -3 -4 1
573 34 12 0.06 5.955869587617938 19.96018861892483 9.803877789160858 0 4 -2
347 21 7 0.06 4.611782948912493 12.009214676597587 3.921273005856711 -1 -1 4
4012 236 17 0.06 1.3939758338094421 15.319159464787868 4.5831370599606265 0 0 1
4011 236 16 0.06 2.175676741466954 16.145246261632614 3.2743802405091857 0 0 1
4712 278 3 -0.12 2.202678288933795 15.840793608989287 9.41673673491442 5 0 1
4715 278 6 0.06 4.936411931214677 15.527971636538467 10.363226346916134 5 0 1
1680 99 14 0.06 3.865967901104416 12.209917422874922 10.021706592368508 -3 -4 1
4716 278 7 0.06 5.042820214237485 17.111049096791252 10.988764147606064 5 0 1
1751 103 17 0.06 2.7286987851244318 19.658892628640594 1.6723476680106348 -2 0 -1
4721 278 12 0.06 2.476886222035222 16.268029410400462 8.501225062276122 5 0 1
4009 236 14 0.06 3.6022803484313113 15.076425081002292 5.75387133392447 0 0 1
575 34 14 0.06 6.073416277763062 19.878513724476658 6.657828781495877 0 4 -2
1738 103 4 -0.12 1.6475251348171114 19.77785939967345 3.60589846870012 -2 0 -1
4000 236 5 -0.18 2.323918924728798 15.381936175064164 4.011421395542714 0 0 1
577 34 16 0.06 3.571631832476733 19.578885030158382 6.990762164348875 0 4 -2
1739 103 5 -0.18 1.7410448057557062 19.652247805332756 2.054726403183295 -2 0 -1
3997 236 2 -0.12 6.013248812795704 15.65175916494966 5.179313537480514 0 0 1
576 34 15 0.06 3.7587776653088656 19.83964975925249 8.654465700292697 0 4 -2
4005 236 10 0.06 5.937084005352988 14.580063800385977 5.442986796786112 0 0 1
1748 103 14 0.06 1.894338547093191 20.82938889058312 3.7579925352565082 -2 0 -1
1671 99 5 -0.18 1.669850220550158 11.755448020870183 10.076049580971791 -3 -4 1
1747 103 13 0.06 2.442504486445009 19.17765570020096 4.122106201477383 -2 0 -1
341 21 1 -0.18 3.632995311324582 11.524829714399184 4.060718766740383 -1 -1 4
4710 278 1 -0.18 4.518068727745103 16.56977104402006 10.205594414619855 5 0 1
342 21 2 -0.12 2.7644889177152727 11.533313311463186 2.735481077546414 -1 -1 4
2457 145 9 0.06 1.6144920450341314 20.11291834022576 9.248713649905433 3 1 3
1749 103 15 0.06 1.27136072585401 20.535703045639636 1.6004539560621633 -2 0 -1
578 34 17 0.06 3.901745923840533 21.22191487365579 7.5978265402947 0 4 -2
346 21 6 0.06 3.2688678502991277 11.86971045347912 5.041104447455889 -1 -1 4
5274 311 4 -0.12 3.4685904348437915 18.673725796738687 16.668971650576356 -1 -3 -2
2461 145 13 0.06 2.2545072655061675 20.847139688115483 11.897463800233863 3 1 3
4719 278 10 0.06 3.004322902816817 15.81593441480998 11.410048486233524 5 0 1
2218 131 8 0.06 5.884083061110582 14.917595980276767 17.099800692672236 0 -5 0
303 18 14 0.06 5.634747062244088 14.604523044852487 21.053524120778924 2 -2 -1
302 18 13 0.06 5.46987412080712 15.407969836655212 19.456242594163346 2 -2 -1
5285 311 15 0.06 3.8154064774143643 18.903916798485927 14.599440017245074 -1 -3 -2
5283 311 13 0.06 3.91023527590289 17.68523460933459 16.73491884638891 -1 -3 -2
2221 131 11 0.06 6.234593395260756 15.169084516917227 13.33209918145104 0 -5 0
294 18 5 -0.18 3.606110567287133 14.78470219650262 20.36306946235918 2 -2 -1
306 18 17 0.06 3.4494697714944684 15.712672232153901 20.877897305734095 2 -2 -1
4273 252 6 0.06 3.689133579072637 12.99126358170891 14.571538889899667 -1 -2 1
5273 311 3 -0.12 2.338441837035358 18.864018469847785 17.69428919621949 -1 -3 -2
5284 311 14 0.06 4.113229344698449 19.407791622328347 16.890527292135925 -1 -3 -2
4817 284 6 0.06 5.936488567415111 18.942901511847086 13.690749663006478 -2 -3 1
292 18 3 -0.12 5.4217653177148275 13.216009913312783 19.535745786577557 2 -2 -1
301 18 12 0.06 4.850568686786135 12.920307732842945 18.66102427488454 2 -2 -1
304 18 15 0.06 3.1357500377865843 14.04920709977169 20.983007983930722 2 -2 -1
4819 284 8 0.06 5.87151308748688 20.068550832020346 15.011890501935968 -2 -3 1
5280 311 10 0.06 3.1959982388090253 19.291143478022317 19.569980370698314 -1 -3 -2
4274 252 7 0.06 2.3405055502308207 13.512541993252443 13.553007008294312 -1 -2 1
293 18 4 -0.12 5.087116264582603 14.598267751025867 20.0870378318191 2 -2 -1
305 18 16 0.06 2.9781167672151083 15.031683101264479 19.544788230211868 2 -2 -1
5287 311 17 0.06 2.1184491112028336 18.532499151440152 14.95070842374201 -1 -3 -2
4277 252 10 0.06 2.238174672873624 13.16505834463714 16.566205366803068 -1 -2 1
2211 131 1 -0.18 5.719146533627994 14.823324044146744 15.975586315855885 0 -5 0
2216 131 6 0.06 5.212779523707093 13.914274506721311 15.810809774163133 0 -5 0
300 18 11 0.06 5.00512544135475 12.542911131343539 20.248300440182554 2 -2 -1
4269 252 2 -0.12 2.0265653219993194 13.802456835613954 15.735194723685128 -1 -2 1
5279 311 9 0.06 3.2327301944871176 17.64047758007075 19.260809485974494 -1 -3 -2
4268 252 1 -0.18 2.5884613618389305 13.05888304672705 14.49721875869668 -1 -2 1
2217 131 7 0.06 5.139537608006614 15.644900139782127 15.734238009340427 0 -5 0
5272 311 2 -0.12 2.5655934190196943 18.525316948558928 19.17588280724094 -1 -3 -2
4276 252 9 0.06 2.4735843516695595 14.770618342315272 15.912578238898286 -1 -2 1
5281 311 11 0.06 1.9562111396096666 19.91989975027986 17.549073093316935 -1 -3 -2
4275 252 8 0.06 2.2689066826763353 12.004322514373039 14.36784799139191 -1 -2 1
5286 311 16 0.06 2.7159376175851206 20.158444756946157 15.274412230822747 -1 -3 -2
5275 311 5 -0.18 2.9826242524089235 19.044998400120384 15.305368934204175 -1 -3 -2
5271 311 1 -0.18 1.2879458455801347 18.448574537678848 20.132119531325078 -1 -3 -2
5282 311 12 0.06 1.5256610442744065 18.265528450265233 17.23816711342692 -1 -3 -2
5276 311 6 0.06 1.5342532509602216 18.19030550963068 21.156475163095646 -1 -3 -2
117 7 15 0.06 3.784614226811806 20.40310031822768 28.851134630478345 -1 0 -1
1401 83 7 0.06 2.786045555687641 11.976623296090631 30.640916162314763 0 -1 -1
107 7 5 -0.18 2.718236957007413 20.610515074892355 28.886816508631025 -1 0 -1
4856 286 11 0.06 5.722161335853473 17.57952730322986 27.821347389886753 -3 1 2
4851 286 6 0.06 3.764902367950634 13.761972522221688 27.39055632255043 -3 1 2
1410 83 16 0.06 1.2701609784576038 12.085448859346487 26.741897444396923 0 -1 -1
4852 286 7 0.06 5.424705038812519 13.621013192966027 27.972154151907812 -3 1 2
113 7 11 0.06 3.568511309239584 18.598215172704183 26.799879246478223 -1 0 -1
5129 302 12 0.06 5.855907543488229 18.98090124088593 25.72248966594899 4 -1 -3
4854 286 9 0.06 4.240245746230079 15.889813092197787 28.781048205685103 -3 1 2
5132 302 15 0.06 5.944881092231418 16.661300758423934 23.024632447782853 4 -1 -3
1307 77 15 0.06 4.197550056880474 11.928885560527496 23.376557169129377 -1 -1 5
5133 302 16 0.06 4.8486644478955325 17.937417787590103 22.506109305898025 4 -1 -3
4853 286 8 0.06 5.096534386916632 14.223210613073611 26.329516984665705 -3 1 2
4846 286 1 -0.18 4.737481837251275 14.18009309301894 27.399966092311505 -3 1 2
103 7 1 -0.18 1.5513611291824825 17.17247391871439 25.33355251718207 -1 0 -1
1409 83 15 0.06 1.81562682888327 11.879864540809203 25.13356772119395 0 -1 -1
4847 286 2 -0.12 4.682556690569515 15.713053937291713 27.810923817909682 -3 1 2
108 7 6 0.06 2.4208218963756343 16.67572969158 24.986815422754642 -1 0 -1
114 7 12 0.06 2.245902181574281 18.07058285774005 27.63221611445316 -1 0 -1
112 7 10 0.06 2.3179984352679766 19.04823826923997 24.766066640178288 -1 0 -1
5122 302 5 -0.18 5.43081763643951 17.59424304265567 23.314283568010126 4 -1 -3
1400 83 6 0.06 1.7625611316617635 11.866507863395125 29.20647859419943 0 -1 -1
1308 77 16 0.06 5.456872940741107 12.735588494020405 22.504053257512734 -1 -1 5
5134 302 17 0.06 4.708496595527954 17.37149628784938 24.040928571867706 4 -1 -3
4848 286 3 -0.12 6.018636682686665 16.502471058946078 27.78651751781991 -3 1 2
5120 302 3 -0.12 5.901837618841121 19.562073378915688 24.81425958130027 4 -1 -3
4855 286 10 0.06 4.115014021481933 16.206651073491493 27.176492564951133 -3 1 2
5128 302 11 0.06 4.910587448946725 19.79328396837652 24.44752687928011 4 -1 -3
105 7 3 -0.12 2.518342164373971 18.791363528878765 26.937263086124737 -1 0 -1
1297 77 5 -0.18 5.182058697229376 11.972604380158344 23.269658086059806 -1 -1 5
116 7 14 0.06 2.4766191688502035 20.881646236892614 26.689462187650786 -1 0 -1
118 7 16 0.06 2.3412154755130423 19.889637436914764 29.588069101143894 -1 0 -1
1309 77 17 0.06 5.566274842081279 12.38107319719667 24.23624870371101 -1 -1 5
104 7 2 -0.12 1.801385400415183 18.58917527396272 25.59271687718151 -1 0 -1
110 7 8 0.06 1.4004747695486106 16.5455371120061 26.17015729764527 -1 0 -1
106 7 4 -0.12 2.204978925714274 20.20337301401652 27.4801805604429 -1 0 -1
1408 83 14 0.06 3.777974608591525 11.426668385063623 26.67144734250089 0 -1 -1
5124 302 7 0.06 5.611697107753631 21.313525506625147 26.760977640203553 4 -1 -3
3153 186 8 0.06 2.1177848133002968 15.229460971262343 35.32445268628383 -1 2 4
3151 186 6 0.06 2.4629481903207764 16.448673690752535 34.018852540985854 -1 2 4
3601 212 14 0.06 2.2768248163400946 15.985434835853116 38.400668897989085 0 0 2
3597 212 10 0.06 4.855592304872712 17.079803307421134 39.209264914219986 0 0 2
3596 212 9 0.06 4.127295228366506 15.937915364306086 40.28366017356751 0 0 2
3599 212 12 0.06 2.1985448489358257 17.4399335640761 40.50540515747988 0 0 2
3592 212 5 -0.18 3.0387546260621354 17.622009724595852 37.088910841633805 0 0 2
3604 212 17 0.06 3.236001847562532 18.701602632001812 37.32058435482257 0 0 2
4567 269 11 0.06 6.045949907069012 11.52605407443462 36.167383411705394 1 2 -4
4557 269 1 -0.18 3.3366981054876197 12.400991906692187 37.22797164634289 1 2 -4
3146 186 1 -0.18 1.746459422526031 15.751062395243242 34.4154211719935 -1 2 4
1690 100 7 0.06 2.0927064124834818 14.67375357015047 40.331113977829474 2 2 0
3152 186 7 0.06 1.6883017977400914 14.869098173447792 33.739454922713705 -1 2 4
3594 212 7 0.06 5.840957484930668 17.00581393368148 41.634716630472155 0 0 2
3589 212 2 -0.12 4.251760620444268 17.05131999204639 40.133203966652324 0 0 2
4571 269 15 0.06 5.098393638850702 13.358040882432562 33.171025169398774 1 2 -4
5227 308 8 0.06 6.107681570316712 19.985370981000372 33.4496350113251 -1 0 -2
4558 269 2 -0.12 3.853188852341922 11.59971540079518 36.03892788151953 1 2 -4
3598 212 11 0.06 3.0463926927723897 18.69876038751726 39.64746666621387 0 0 2
3020 178 11 0.06 3.0267552854425155 21.30972426404679 37.006998361970815 -2 0 -2
4563 269 7 0.06 3.6886389180713604 13.394206976888155 37.08258946619028 1 2 -4
4564 269 8 0.06 3.7818026356988748 11.961772223126431 38.126976266362554 1 2 -4
3603 212 16 0.06 3.928802035800966 17.029646278476424 37.009383361832526 0 0 2
5221 308 2 -0.12 5.5533091596645665 18.00631933691734 32.80773589126617 -1 0 -2
4562 269 6 0.06 2.25349120675419 12.361072798756785 37.43652603989901 1 2 -4
5220 308 1 -0.18 5.766095637403261 19.473483195698616 32.54112352322191 -1 0 -2
3588 212 1 -0.18 5.0689865746470115 17.7796978629759 41.24785529851614 0 0 2
4565 269 9 0.06 3.2427511917792393 11.751439676996002 35.16290775708545 1 2 -4
3593 212 6 0.06 5.605166719189464 18.604989314075297 40.818960878398215 0 0 2
4568 269 12 0.06 5.463154007291557 12.997266981744572 35.82271053729705 1 2 -4
3591 212 4 -0.12 2.2431074682577306 17.10329072262359 38.35471296101544 0 0 2
5228 308 9 0.06 5.215000858000037 17.46278971403708 31.8858579213723 -1 0 -2
3590 212 3 -0.12 2.864130216965931 17.66512148140003 39.64668969609288 0 0 2
3602 212 15 0.06 2.379542054237163 17.565365103255587 36.21984056498786 0 0 2
3509 207 7 0.06 5.861522663547307 12.668867943556942 40.135969392217916 3 0 2
5233 308 14 0.06 5.9897234756303845 15.999753172802516 34.58433787487781 -1 0 -2
4559 269 3 -0.12 5.223532908299125 11.968388428679155 35.58562180826048 1 2 -4
1691 100 8 0.06 2.0563704492593313 12.979227506380312 40.16340529051971 2 2 0
5225 308 6 0.06 4.767315534361197 19.835517335673735 32.33413961453911 -1 0 -2
5229 308 10 0.06 4.77739537921082 17.657492703796162 33.54005324217481 -1 0 -2
4561 269 5 -0.18 5.018936525006646 12.327574299456442 33.04215409953999 1 2 -4
4572 269 16 0.06 3.9762357386822447 12.034119664376686 32.87032997741654 1 2 -4
4127 243 13 0.06 1.3157980020355042 11.753683807030432 33.777541609191005 0 2 3
3019 178 10 0.06 4.376416689698429 20.933358179465927 38.859003566028974 -2 0 -2
5232 308 13 0.06 5.922831507907912 15.429263706275316 32.9332784409945 -1 0 -2
4573 269 17 0.06 5.446678265309112 12.043479380171767 32.11640166961102 1 2 -4
1684 100 1 -0.18 1.4801896008241529 13.839305410863933 40.44305704751021 2 2 0
4560 269 4 -0.12 5.620404445364493 11.57994940864417 34.173128087644734 1 2 -4
3965 234 4 -0.12 1.2304729133501824 23.549625806846354 5.59659514824211 1 2 -1