LAMMPS data file via write_data, version 29 Aug 2024, timestep = 1000000, units = real

5145 atoms
15 atom types
5145 bonds
15 bond types
8232 angles
24 angle types
10290 dihedrals
30 dihedral types
2744 impropers
8 improper types

2.8867434313141693 42.1132565686769 xlo xhi
2.8867434313141693 42.1132565686769 ylo yhi
2.8867434313141693 42.1132565686769 zlo zhi

Masses

1 12.011
2 12.011
3 12.011
4 12.011
5 12.011
6 12.011
7 12.011
8 1.008
9 1.008
10 1.008
11 1.008
12 1.008
13 1.008
14 1.008
15 1.008

Pair Coeffs # lj/cut/coul/long

1 0.066 3.5
2 0.07 3.55
3 0.07 3.55
4 0.07 3.55
5 0.07 3.55
6 0.07 3.55
7 0.07 3.55
8 0.03 2.5
9 0.03 2.5
10 0.03 2.5
11 0.03 2.42
12 0.03 2.42
13 0.03 2.42
14 0.03 2.42
15 0.03 2.42

Bond Coeffs # harmonic

1 317 1.51
2 469 1.4
3 469 1.4
4 469 1.4
5 469 1.4
6 469 1.4
7 340 1.09
8 340 1.09
9 340 1.09
10 367 1.08
11 367 1.08
12 367 1.08
13 367 1.08
14 367 1.08
15 469 1.4

Angle Coeffs # harmonic

1 70 120
2 63 120
3 63 120
4 63 120
5 70 120
6 35 109.5
7 35 109.5
8 35 109.5
9 35 120
10 35 120
11 35 120
12 35 120
13 35 120
14 35 120
15 35 120
16 35 120
17 33 107.8
18 33 107.8
19 63 120
20 33 107.8
21 35 120
22 63 120
23 35 120
24 63 120

Dihedral Coeffs # opls

1 0 7.25 0 0
2 0 7.25 0 0
3 0 7.25 0 0
4 0 0 0 0
5 0 7.25 0 0
6 0 7.25 0 0
7 0 7.25 0 0
8 0 7.25 0 0
9 0 0 0 0
10 0 0 0 0
11 0 7.25 0 0
12 0 7.25 0 0
13 0 7.25 0 0
14 0 7.25 0 0
15 0 7.25 0 0
16 0 7.25 0 0
17 0 7.25 0 0
18 0 7.25 0 0
19 0 0 0 0
20 0 7.25 0 0
21 0 7.25 0 0
22 0 7.25 0 0
23 0 0 0 0
24 0 0 0 0
25 0 7.25 0 0
26 0 7.25 0 0
27 0 7.25 0 0
28 0 7.25 0 0
29 0 7.25 0 0
30 0 7.25 0 0

Improper Coeffs # cvff

1 1.1 -1 2
2 0 -1 2
3 0 -1 2
4 1.1 -1 2
5 1.1 -1 2
6 1.1 -1 2
7 1.1 -1 2
8 1.1 -1 2

Atoms # full

2643 177 3 -0.115 7.256966805010016 6.271986473487966 7.417782214618607 2 2 1
2097 140 12 0.115 3.4607340016476034 8.887641324885163 5.900239881014302 -1 -1 1
1808 121 8 0.06 5.516758619941115 8.293694823561605 11.005504293237413 0 1 -1
1927 129 7 -0.115 6.711361701243094 10.176738231356792 3.4883287664864504 2 3 0
1803 121 3 -0.115 3.4741063276595745 10.453450105070214 12.386041034936037 0 1 -1
1815 121 15 0.115 3.495912257562525 8.716644479478688 9.475750146260552 0 1 -1
2060 138 5 -0.115 5.4527625415858 6.751286476643809 3.740235657716036 -1 -1 0
2057 138 2 -0.115 6.318928710210808 4.148408277688394 3.1929701023151997 -1 -1 0
2649 177 9 0.06 6.172354237202136 3.684865131124932 9.555487154543588 2 2 1
2058 138 3 -0.115 5.420832554496073 4.448559097042397 4.253513095117253 -1 -1 0
2642 177 2 -0.115 7.115306369449984 5.589713858716567 8.644363131595128 2 2 1
1801 121 1 -0.065 4.752103302363338 8.410143367130608 11.876550409748036 0 1 -1
2067 138 12 0.115 4.188220193415446 5.859875239094304 5.269198673952621 -1 -1 0
1809 121 9 0.06 4.293753447391297 7.400274729647638 11.990592074334188 0 1 -1
2650 177 10 0.06 5.927634161604647 4.0929164229662 7.882779887961435 2 2 1
2068 138 13 0.115 5.2702934435115925 7.74141917796674 4.097498356999663 -1 -1 0
2651 177 11 0.115 6.705300162344868 5.975351467456323 6.607012354930983 2 2 1
4230 282 15 0.115 6.84978587527014 12.536109541535835 9.947548668469771 2 0 2
2641 177 1 -0.065 5.957129798628202 4.53187274529014 8.885638441381204 2 2 1
1807 121 7 -0.115 3.2141675851374316 9.418287856367382 10.197417705402033 0 1 -1
1802 121 2 -0.115 3.717027259169603 9.379391833815554 11.500511209977809 0 1 -1
3101 207 11 0.115 7.685486229294195 3.7211644286075996 12.057382622984697 2 1 -1
2059 138 4 -0.115 4.958035301985539 5.718273689656176 4.477903911890672 -1 -1 0
2066 138 11 0.115 4.995344952938916 3.6231610895215702 4.830524347902456 -1 -1 0
2096 140 11 0.115 3.940911250553304 10.882812328413042 4.504242581930263 -1 -1 1
1935 129 15 0.115 6.313717228335277 9.664669328986474 4.292937416189334 2 3 0
2648 177 8 0.06 4.962519553556543 4.931860298739188 9.068929567433088 2 2 1
2088 140 3 -0.115 2.934266450315136 10.654328389039701 4.763631833115751 -1 -1 1
4223 282 8 0.06 7.706984130538264 9.85059549247623 11.032118064554556 2 0 2
212 15 2 -0.115 6.673161989310042 5.607431547586558 19.5255834857592 0 -1 1
211 15 1 -0.065 7.051738394225692 4.663124699255013 18.407661334163784 0 -1 1
533 36 8 0.06 3.2802210549844797 4.8622695296451965 22.067883507696926 1 -1 -5
224 15 14 0.115 3.911554784155224 7.052907951665428 20.866099473637593 0 -1 1
358 24 13 0.115 5.548250795628952 4.705457597871284 21.982283456182103 -1 1 1
349 24 4 -0.115 7.199782942766484 3.2837321096009635 22.176539579297852 -1 1 1
220 15 10 0.06 6.544779688633553 3.6977816984348193 18.63056388543483 0 -1 1
2929 196 4 -0.115 5.643797947260206 12.514728388684116 14.621368007250144 2 0 2
3139 210 4 -0.115 4.490833875760543 3.030441281811216 12.973585244965781 0 0 0
4213 281 13 0.115 3.6581544116507088 3.1580999551334368 20.0744413924768 2 3 1
1810 121 10 0.06 5.306212806667032 8.637906303110015 12.85420674617483 0 1 -1
2501 167 11 0.115 4.934299443909726 11.333967889899059 20.453939147359296 0 0 0
2936 196 11 0.115 7.558492547255764 11.515288759635848 15.104402727268308 2 0 2
3138 210 3 -0.115 3.987274738287799 4.189254652673318 13.637840353586006 0 0 0
2503 167 13 0.115 4.8242187295363665 8.346113733863564 17.339244394788274 0 0 0
216 15 6 -0.115 4.9230034333415515 6.757176895429764 20.79454322056224 0 -1 1
2494 167 4 -0.115 5.002355121010616 9.768934586125823 18.975668485655422 0 0 0
2937 196 12 0.115 5.010812590154302 11.769836125616013 14.90157130496202 2 0 2
214 15 4 -0.115 7.293916605761007 7.2013120482467405 21.253121803380104 0 -1 1
215 15 5 -0.115 5.9201329258538475 7.520980602456272 21.50259111962841 0 -1 1
1811 121 11 0.115 3.98256719024365 10.450496935844784 13.372282621083956 0 1 -1
225 15 15 0.115 4.60432676966208 5.222999935402214 19.171400686451726 0 -1 1
2495 167 5 -0.115 4.488190886084283 9.252059536350052 17.79673621205233 0 0 0
2502 167 12 0.115 5.8390029017071665 9.248461256284306 19.438938157324785 0 0 0
217 15 7 -0.115 5.307567865574561 5.896375996541348 19.74385797871678 0 -1 1
2928 196 3 -0.115 7.072105972305678 12.367069780761025 14.702287133270469 2 0 2
479 32 14 0.115 6.662093202041222 12.414562155802217 21.64257688041746 -2 1 2
2496 167 6 -0.115 3.474147732931181 9.945336453512517 17.159452860236925 0 0 0
2493 167 3 -0.115 4.472554829127511 10.972104978261155 19.539043677629802 0 0 0
213 15 3 -0.115 7.63773836129184 6.263059432855328 20.283820986307433 0 -1 1
223 15 13 0.115 5.779933343465382 8.162004455884796 22.287926224582282 0 -1 1
219 15 9 0.06 6.717935877015663 4.993541203814631 17.377687832980865 0 -1 1
2492 167 2 -0.115 3.500646725235253 11.68853584903508 18.891894661793312 0 0 0
2504 167 14 0.115 3.070759645244308 9.56506359336382 16.211542286203503 0 0 0
3146 210 11 0.115 4.520422610077559 4.652229527757237 14.411491657513897 0 0 0
2497 167 7 -0.115 2.924520530898032 11.157434347199334 17.681149674058418 0 0 0
1522 102 7 -0.115 3.180115726863302 8.662445364847006 25.615502499080392 -5 -1 0
660 44 15 0.115 6.531088337822915 5.525587450086826 30.113562355740694 0 3 0
468 32 3 -0.115 7.121003322423303 11.629248947644127 25.38498429371341 -2 1 2
648 44 3 -0.115 6.716970867127005 7.104802204085817 27.09074755690765 0 3 0
1528 102 13 0.115 4.463058294141296 9.923528825717513 22.639257406315053 -5 -1 0
470 32 5 -0.115 7.753107236626053 11.325547970509334 23.043308283157835 -2 1 2
4480 299 10 0.06 6.062574362507537 6.586823859666644 32.242390593580275 -1 1 -2
653 44 8 0.06 4.293380780383267 7.751870450888678 28.137864952760005 0 3 0
4477 299 7 -0.115 5.367257743242677 9.370288667192021 32.0172724107641 -1 1 -2
654 44 9 0.06 4.4175927237895385 6.8495292247045185 29.698071444983565 0 3 0
655 44 10 0.06 3.9588205004710346 6.039223438494292 28.138235892708288 0 3 0
352 24 7 -0.115 7.358301081950212 4.153870712330825 24.845438744234844 -1 1 1
4484 299 14 0.115 3.9483647472482186 11.162115339851667 31.612256979521447 -1 1 -2
1520 102 5 -0.115 3.8220329161554005 9.754442595355323 23.569286244724772 -5 -1 0
476 32 11 0.115 7.18328534709483 11.494008137477426 26.434774157522245 -2 1 2
1529 102 14 0.115 4.661203759541939 7.868510551090893 24.43448326343821 -5 -1 0
350 24 5 -0.115 6.218479937141252 4.2016028376382435 22.613868274220458 -1 1 1
656 44 11 0.115 6.169050759844484 7.7560603245707584 26.36922777408391 0 3 0
375 25 15 0.115 5.012590067609309 12.424494670139834 29.10477977630536 1 0 1
359 24 14 0.115 5.671266705674089 5.394125963922829 24.384706641419005 -1 1 1
647 44 2 -0.115 6.089138594594335 6.5985630101985695 28.26393320309556 0 3 0
360 24 15 0.115 7.390106717298268 4.6276837197782035 25.825655929392962 -1 1 1
467 32 2 -0.115 6.084381728140273 12.507452724747765 24.993358083004214 -2 1 2
4479 299 9 0.06 7.36291274389445 7.6538427505067785 31.759397592139358 -1 1 -2
1530 102 15 0.115 3.1972938210639668 7.802152958613387 26.300466462844657 -5 -1 0
475 32 10 0.06 5.377071842298136 12.671823369959393 26.92253423338526 -2 1 2
646 44 1 -0.065 4.624861967693858 6.780381576561279 28.597586285883402 0 3 0
652 44 7 -0.115 6.948386658463029 5.886861415256936 29.211390560862778 0 3 0
1521 102 6 -0.115 3.930581755159924 8.698863852831305 24.45186876343114 -5 -1 0
351 24 6 -0.115 6.346267199232447 4.641026124584744 23.994173956681422 -1 1 1
534 36 9 0.06 3.297348100085199 5.680346573893605 23.41348176243957 1 -1 -5
4485 299 15 0.115 5.362011168793911 8.916861789923807 31.029148138555232 -1 1 -2
1755 117 15 0.115 4.055731191994553 4.2024663240676245 31.677512050370176 2 0 0
471 32 6 -0.115 6.806991028162597 12.234253043607566 22.66725780157507 -2 1 2
1754 117 14 0.115 3.975458957775501 6.344163010444025 32.7178363236154 2 0 0
611 41 11 0.115 6.395336490374133 5.613649197873425 35.557289671641996 0 0 0
2247 150 12 0.115 4.164101787533472 12.50649550098655 39.23672933175784 1 -2 -1
613 41 13 0.115 5.062572032062184 7.8567457735538735 38.918854843101016 0 0 0
1926 129 6 -0.115 6.051487456971085 9.935996258676958 41.44905385496354 2 3 -1
603 41 3 -0.115 6.65744263780144 6.168336107069637 36.422339915833476 0 0 0
4474 299 4 -0.115 5.871043024085656 10.553491459032372 34.455136559588816 -1 1 -2
2238 150 3 -0.115 3.417712740440331 11.065445793051175 37.79364430875934 1 -2 -1
2069 138 14 0.115 6.937661875501903 7.312795753746645 41.47740733777462 -1 -1 -1
1924 129 4 -0.115 7.572474733599253 11.592444108424012 40.354678393497906 2 3 -1
4482 299 12 0.115 6.1459827742675675 11.110145092442423 35.29917234029166 -1 1 -2
2070 138 15 0.115 7.547003126980914 5.0256697690316265 40.95115731478336 -1 -1 -1
2245 150 10 0.06 3.172939102499483 9.58814424814042 35.541591387354046 1 -2 -1
4091 273 11 0.115 7.152472435518441 3.596756834209485 37.93529058115263 2 -1 -1
612 41 12 0.115 4.655616855950738 6.605724801644838 36.79144428472182 0 0 0
606 41 6 -0.115 7.129143789269577 7.82313507863335 38.688526370001895 0 0 0
4475 299 5 -0.115 4.902957557228655 11.147497043232276 33.59806385189944 -1 1 -2
4473 299 3 -0.115 6.380209920155184 9.303826567550638 34.214930909506165 -1 1 -2
604 41 4 -0.115 5.625712421430348 6.756788155149771 37.135734723941425 0 0 0
2239 150 4 -0.115 3.3366104855803433 12.176361257769097 38.68661685428255 1 -2 -1
4478 299 8 0.06 7.300892931978658 6.954771498623014 33.48757884611428 -1 1 -2
4472 299 2 -0.115 6.052756176711139 8.646938984129157 32.99540892005105 -1 1 -2
4481 299 11 0.115 7.013089575751417 8.817818720300377 34.907187662358254 -1 1 -2
4088 273 8 0.06 4.575426279370111 3.3154010694481393 38.0585252925499 2 -1 -1
1676 112 11 0.115 3.5600987178324117 7.025614262556107 40.514881035171456 -1 0 -1
605 41 5 -0.115 5.843051485899254 7.505491285490402 38.31253467126311 0 0 0
1933 129 13 0.115 6.05463362219208 10.429314192825395 39.38966724284819 2 3 -1
614 41 14 0.115 7.284405148154359 8.432854807810621 39.58476303498169 0 0 0
1934 129 14 0.115 5.222819802013402 9.208058175511491 41.42931082477634 2 3 -1
2062 138 7 -0.115 6.806352731271712 5.214000691051306 41.623175613597326 -1 -1 -1
2246 150 11 0.115 4.3333518956497485 10.646052551236767 37.50110481153088 1 -2 -1
4483 299 13 0.115 4.418450616615791 12.091069465251415 33.91783857829168 -1 1 -2
1925 129 5 -0.115 6.528157262358157 10.632698024595864 40.33597587118939 2 3 -1
1746 117 6 -0.115 3.517415831057841 5.544445205649303 33.21046046479037 2 0 0
1747 117 7 -0.115 3.415220253758008 4.3191836781095585 32.5683852373849 2 0 0
1673 112 8 0.06 3.056626178663965 9.445932873011131 40.52568451113764 -1 0 -1
4471 299 1 -0.065 6.77823990940519 7.321573741069126 32.61730430239139 -1 1 -2
2061 138 6 -0.115 6.466031920471405 6.4966060078970065 41.99089655310645 -1 -1 -1
1677 112 12 0.115 3.0352799940266317 4.822032134903371 39.525630864175184 -1 0 -1
4476 299 6 -0.115 4.61669192223579 10.566131428048081 32.33320515728739 -1 1 -2
1742 117 2 -0.115 2.9258112950734714 3.199403725970746 33.20125423431374 2 0 0
1974 132 9 0.06 4.599263007403277 13.983682411630271 9.359292726915463 0 0 0
1968 132 3 -0.115 3.1637674352353704 16.60531388768269 9.762668947396634 0 0 0
2925 195 15 0.115 4.56083480663157 19.884690972718165 3.6443571280768374 0 -1 -3
2912 195 2 -0.115 4.838849723289325 21.501854366324807 5.069217588923217 0 -1 -3
1970 132 5 -0.115 4.363143504627369 18.57685528199873 10.542953175305655 0 0 0
1975 132 10 0.06 3.0814213325275404 13.85147158247789 10.082093499530718 0 0 0
4322 289 2 -0.115 7.521410174707729 16.017358781728404 4.141577198859367 2 -2 -1
2919 195 9 0.06 5.621473350811772 19.643988200416366 5.771953707404645 0 -1 -3
4327 289 7 -0.115 6.624622331738646 17.038719011241923 3.8208080905519113 2 -2 -1
2911 195 1 -0.065 5.766522868220624 20.717599399919443 5.938688383587077 0 -1 -3
1971 132 6 -0.115 5.494275900992295 17.73226757231577 10.912672694316093 0 0 0
3699 247 9 0.06 6.237743484987211 16.963823312227518 6.513643552126645 1 -2 2
1973 132 8 0.06 4.494782806668145 13.718725198427176 11.074793279558772 0 0 0
1979 132 14 0.115 6.398517971206331 18.115651638184083 11.270019868232403 0 0 0
4323 289 3 -0.115 7.126174998434931 14.691229271104834 3.909711846225067 2 -2 -1
3698 247 8 0.06 5.572502967889678 17.420792593058298 8.006112142461514 1 -2 2
3701 247 11 0.115 3.7581402202122365 18.42041990708364 6.538199493242442 1 -2 2
3697 247 7 -0.115 3.46285632292199 15.139341154800277 7.050452773825735 1 -2 2
1966 132 1 -0.065 4.064065027833659 14.296384874177415 10.247141713754381 0 0 0
3691 247 1 -0.065 5.531220992299373 16.58590978839574 7.240021200017992 1 -2 2
3700 247 10 0.06 5.885708506271133 15.646355684493628 7.764193085107789 1 -2 2
1967 132 2 -0.115 4.200117708535697 15.774908628220185 10.263607478082102 0 0 0
3692 247 2 -0.115 4.109777893929032 16.385954281726775 6.869810133933643 1 -2 2
1980 132 15 0.115 6.1352045215931055 15.635614892905306 11.094405781931275 0 0 0
2080 139 10 0.06 3.994983795758496 21.888116537463926 9.17674922939561 0 1 0
2917 195 7 -0.115 4.350681367436314 20.914034529449307 3.8977501528431695 0 -1 -3
1972 132 7 -0.115 5.358113015755926 16.32223440834928 10.787471930818853 0 0 0
2920 195 10 0.06 5.6497972467481965 20.898309806248573 7.008994370513038 0 -1 -3
2918 195 8 0.06 6.800433023179767 20.89041033235071 5.67400459545394 0 -1 -3
1978 132 13 0.115 4.4063206637160715 19.627313707742857 10.658485956121377 0 0 0
3705 247 15 0.115 4.072487076447194 14.276287156649206 7.305311007300883 1 -2 2
4324 289 4 -0.115 5.891202440221214 14.33283215552449 3.375012919427198 2 -2 -1
4335 289 15 0.115 6.797093673375487 18.064018429206136 3.969903060655919 2 -2 -1
2078 139 8 0.06 4.920462091598988 21.631514790863925 10.585969959261329 0 1 0
3693 247 3 -0.115 3.3494010224409916 17.48475352346425 6.551861712022465 1 -2 2
2770 185 10 0.06 7.671997547952221 20.38354705884451 11.035390875584362 1 1 0
1969 132 4 -0.115 3.17322875911559 18.01281666810528 9.961848403582454 0 0 0
2916 195 6 -0.115 3.388131192191673 21.644611254941328 3.139046576585555 0 -1 -3
4332 289 12 0.115 5.694648881770938 13.230828143601247 3.247965080628659 2 -2 -1
4326 289 6 -0.115 5.391512152788469 16.714390253828487 3.267054051053106 2 -2 -1
4229 282 14 0.115 7.621014527562924 13.78728653991326 8.147628107393428 2 0 2
2071 139 1 -0.065 4.391328746631714 22.410927025345213 10.055310543212794 0 1 0
4325 289 5 -0.115 4.982070324371476 15.350606590779764 3.0597503685745355 2 -2 -1
2863 191 13 0.115 5.7600203296314465 19.78726184538097 21.892920032534157 -1 -1 0
4164 278 9 0.06 3.2199991888381083 18.76810746988759 14.475700215041343 0 1 0
2930 196 5 -0.115 5.0711289394192445 13.731408494993744 14.125265062108149 2 0 2
4167 278 12 0.115 4.246215458412553 20.80543183116156 18.596838896776895 0 1 0
2855 191 5 -0.115 6.607167077201848 20.38316249041827 21.479876115602522 -1 -1 0
4158 278 3 -0.115 4.04206847397583 20.198664222509763 16.569482786729665 0 1 0
4170 278 15 0.115 5.3827939405474385 21.732383943404823 13.827210512028376 0 1 0
4159 278 4 -0.115 4.379507082900767 21.084574138273044 17.59657486495383 0 1 0
4157 278 2 -0.115 4.306804442893682 20.454275227679474 15.209885912726376 0 1 0
4160 278 5 -0.115 5.077063137968576 22.238626309622134 17.215332075999466 0 1 0
3558 238 3 -0.115 5.074746120581812 16.07307387276032 20.911578976993844 1 -1 -1
2498 167 8 0.06 3.1497542375726697 13.818576827497742 18.76111764596551 0 0 0
2856 191 6 -0.115 7.279508753514325 21.416534931522808 22.078797146787167 -1 -1 0
3562 238 7 -0.115 3.4563831533009153 17.824584640636132 20.885890022893708 1 -1 -1
2854 191 4 -0.115 7.148009442816542 19.694338307055585 20.42321325581651 -1 -1 0
4163 278 8 0.06 3.888953759463467 19.798309782796064 13.223248605867548 0 1 0
4166 278 11 0.115 3.4297211362987268 19.277485488698698 16.81415353054382 0 1 0
4406 294 11 0.115 7.512996708227828 13.309096077057717 17.17950692432003 2 -1 2
3566 238 11 0.115 5.60163146184941 15.256746337226893 20.474200060971977 1 -1 -1
3563 238 8 0.06 3.161671543589097 16.448269989965553 18.391030297315076 1 -1 -1
4398 294 3 -0.115 7.70297556379805 14.108903487341177 17.854364469323542 2 -1 2
2491 167 1 -0.065 2.9688060784805446 12.994007008514854 19.46091365746682 0 0 0
4156 278 1 -0.065 4.026352218449288 19.403817228074804 14.18502468948704 0 1 0
2862 191 12 0.115 6.68854875602734 18.761358550636018 20.148241445149466 -1 -1 0
2939 196 14 0.115 5.419609997423338 15.598674940225509 13.371519740189196 2 0 2
3565 238 10 0.06 4.365456306175202 17.775658985077264 18.189904820427877 1 -1 -1
4407 294 12 0.115 6.802964607721384 15.43145023051685 16.562890769709732 2 -1 2
3559 238 4 -0.115 5.2087166491993875 16.222107201548525 22.332177137709714 1 -1 -1
4399 294 4 -0.115 7.317981562336076 15.411820120418575 17.54069300850633 2 -1 2
4454 297 14 0.115 6.751327005463793 18.824079891634465 15.53248532192696 3 0 0
4165 278 10 0.06 4.844609047701486 18.726844095374886 14.180496155167342 0 1 0
2938 196 13 0.115 4.024777924991229 13.700604880742025 14.11127383302908 2 0 2
4051 271 1 -0.065 3.419559759336348 21.74042597669536 21.517281404515018 -1 -1 0
4162 278 7 -0.115 5.071098189216859 21.6101200393895 14.866432096436414 0 1 0
4400 294 5 -0.115 7.60824403393835 16.519064718219973 18.393549999143765 2 -1 2
3557 238 2 -0.115 4.182185969295437 16.856377811790836 20.210535444336255 1 -1 -1
2931 196 6 -0.115 5.893272857700854 14.718999757208623 13.648202553883102 2 0 2
3564 238 9 0.06 4.8097686041100545 16.044677032865785 18.415118215105338 1 -1 -1
3556 238 1 -0.065 4.065660397111787 16.826907614453 18.734983699383157 1 -1 -1
4058 271 8 0.06 3.9966905667585526 22.162291046484278 20.72851302694618 -1 -1 0
2932 196 7 -0.115 7.255166796694618 14.636825691359594 13.69868864541683 2 0 2
4408 294 13 0.115 7.300279232867553 17.572756640445995 18.26035480391215 2 -1 2
3561 238 6 -0.115 3.605462327365909 18.04370363438034 22.29663399049133 1 -1 -1
2499 167 9 0.06 3.389395084152741 13.118786292171402 20.429148734700917 0 0 0
4059 271 9 0.06 3.6921240712963255 20.71209170884646 21.590722625880197 -1 -1 0
4453 297 13 0.115 7.6182379680679775 20.985437568894152 16.188132142275368 3 0 0
4060 271 10 0.06 3.5612128716733205 22.296921358534764 22.446381699704077 -1 -1 0
4161 278 6 -0.115 5.456974073112969 22.459061534146603 15.877791562353378 0 1 0
2940 196 15 0.115 7.734448712535544 15.532125580831266 13.385053239486455 2 0 2
680 46 5 -0.115 6.2285628254057634 19.88405408349187 25.665231209845082 1 4 -1
3568 238 13 0.115 4.451630787218433 17.30067678724786 24.11998551113173 1 -1 -1
473 32 8 0.06 4.201083444757809 13.363145868756227 25.868823168737272 -2 1 2
690 46 15 0.115 7.246175638005374 16.67404837910112 25.21790094258332 1 4 -1
365 25 5 -0.115 4.307282344188366 14.65256986964045 31.48258335903306 1 0 1
676 46 1 -0.065 6.796023305567935 16.38309873079248 27.9463877671176 1 4 -1
362 25 2 -0.115 2.9793260719224954 13.128747694487473 29.470668719935958 1 0 1
472 32 7 -0.115 5.902639711124101 12.748428969527826 23.62919634821152 -2 1 2
687 46 12 0.115 5.74338322944503 20.852821312333106 27.568043996541878 1 4 -1
678 46 3 -0.115 6.012793158702754 18.750102757075762 27.759722857447596 1 4 -1
688 46 13 0.115 6.157604344564452 20.77952131572281 24.972566887634734 1 4 -1
367 25 7 -0.115 4.3807554235846595 13.15809715283744 29.562577637669403 1 0 1
689 46 14 0.115 6.951269772720799 18.842305462618903 23.927963457755396 1 4 -1
374 25 14 0.115 6.202724183010389 13.851814848842823 30.696169466550504 1 0 1
681 46 6 -0.115 6.643543805570413 18.686792876234065 24.996459823530106 1 4 -1
677 46 2 -0.115 6.496227728603685 17.54460249959343 27.133436997137647 1 4 -1
1034 69 14 0.115 3.2682139255610827 19.328662756755143 29.632379185127842 -2 0 1
682 46 7 -0.115 6.761823447251054 17.53523327959165 25.762765325457092 1 4 -1
3567 238 12 0.115 5.794101969668663 15.535615019451933 22.886514483259628 1 -1 -1
366 25 6 -0.115 5.0878917620424655 13.916760285417393 30.571184436085794 1 0 1
686 46 11 0.115 5.751590657331452 18.6698275401754 28.805408290693027 1 4 -1
679 46 4 -0.115 6.045118227621408 19.924419381277644 27.055168099845293 1 4 -1
1033 69 13 0.115 3.408046561716081 18.410831040644673 31.849884592673437 -2 0 1
480 32 15 0.115 5.041869151260274 13.39636980649669 23.348286006371985 -2 1 2
474 32 9 0.06 5.741123007116905 14.290160599525183 26.211400368144474 -2 1 2
685 46 10 0.06 7.576964012875339 15.74152926954784 27.45174209989014 1 4 -1
683 46 8 0.06 5.914623335236424 15.834195494951194 28.05881948038411 1 4 -1
3560 238 5 -0.115 4.416625904279771 17.193323428865604 23.016990443406986 1 -1 -1
4848 324 3 -0.115 6.759951999725832 22.363369970404122 31.794716651553173 1 2 -2
4860 324 15 0.115 7.282049429326735 19.17665553333845 30.610650151820483 1 2 -2
4852 324 7 -0.115 6.987577687323326 19.937826080637105 31.262975289277186 1 2 -2
684 46 9 0.06 7.207451864856261 16.726211108211196 28.953095674287336 1 4 -1
466 32 1 -0.065 5.3105738071805915 13.267748971821002 26.036602558196634 -2 1 2
4853 324 8 0.06 7.278133273409418 22.33163737419886 29.271827485079772 1 2 -2
4847 324 2 -0.115 7.20366939388138 21.28961797974498 30.985365582533955 1 2 -2
373 25 13 0.115 4.863032754978739 15.15743123674539 32.25944948727427 1 0 1
3569 238 14 0.115 3.0574523645781864 18.885230788678925 22.731428495595868 1 -1 -1
2864 191 14 0.115 6.933023011768371 21.86564764762052 22.91799148209008 -1 -1 0
1211 81 11 0.115 4.362718951533825 20.93846487139061 37.87112239105069 1 -1 -1
580 39 10 0.06 5.572074040167129 14.252420016678048 39.15973638437997 -1 1 0
575 39 5 -0.115 7.129363420768967 15.029682264420837 34.78804941151409 -1 1 0
4858 324 13 0.115 5.352465753337066 20.364713075348828 34.211843629463274 1 2 -2
2295 153 15 0.115 6.197179226726728 19.940263421355688 37.84277721851659 1 1 -2
581 39 11 0.115 5.235113944293121 13.217631683710096 36.982986778022465 -1 1 0
1738 116 13 0.115 3.330047951718731 17.255710120141025 39.76100610748564 2 -1 -1
4735 316 10 0.06 3.0266778727923183 18.566842116493675 37.58169798680426 -1 -1 -1
582 39 12 0.115 6.160243973997797 13.180189961350008 34.589345612436865 -1 1 0
2286 153 6 -0.115 6.945199646890848 19.882512927063285 39.820566215933155 1 1 -2
579 39 9 0.06 6.23343047241404 15.916412115331491 39.55306523974227 -1 1 0
578 39 8 0.06 4.607996493089649 15.603396420838536 38.90860753451625 -1 1 0
2294 153 14 0.115 6.040255408552781 20.079202246077624 40.319991511870384 1 1 -2
4849 324 4 -0.115 6.006879574069476 22.046052674300086 32.95335772418175 1 2 -2
585 39 15 0.115 7.21667539097831 17.099189386305575 37.466255488229706 -1 1 0
573 39 3 -0.115 5.887030379684787 13.993505422383173 36.63473134832219 -1 1 0
4726 316 1 -0.065 3.0794813685807574 18.57668218544522 36.4370422632464 -1 -1 -1
4740 316 15 0.115 4.221119461170477 16.313099712410732 36.17279049059036 -1 -1 -1
4333 289 13 0.115 3.984270328219627 15.106013487323825 41.79740808687278 2 -2 -2
2290 153 10 0.06 7.407247017888674 20.057166174859105 35.93785642536183 1 1 -2
4732 316 7 -0.115 3.1818859468993796 16.15735755904381 35.89912083590042 -1 -1 -1
4734 316 9 0.06 4.103337117851731 18.68985639817496 36.13314938831232 -1 -1 -1
4739 316 14 0.115 3.2454793102020534 14.013184912481647 35.65713966936309 -1 -1 -1
4851 324 6 -0.115 6.200721569160722 19.654306624524168 32.38063578442265 1 2 -2
4859 324 14 0.115 5.966423256793625 18.615834809497784 32.59336411907677 1 2 -2
583 39 13 0.115 7.58137952287469 14.966684341653451 33.776409996365686 -1 1 0
576 39 6 -0.115 7.419097025281727 16.19653319660691 35.55103098202757 -1 1 0
2287 153 7 -0.115 7.096070996632947 19.833670367663064 38.42860440501161 1 1 -2
1203 81 3 -0.115 3.5964845430875823 21.61102511399378 38.176452695324656 1 -1 -1
4850 324 5 -0.115 5.8197957720392 20.70139334144902 33.27882076691857 1 2 -2
577 39 7 -0.115 6.897399373497376 16.237800416000287 36.89227579350617 -1 1 0
571 39 1 -0.065 5.642810672093348 15.266830070961376 38.84689036539656 -1 1 0
572 39 2 -0.115 6.102927013474856 15.182181293553402 37.40454537972087 -1 1 0
574 39 4 -0.115 6.3936776618385895 13.960143951408595 35.35255306305629 -1 1 0
4334 289 14 0.115 4.706598898778116 17.410444718714857 42.09984683240232 2 -2 -2
4757 318 2 -0.115 7.4846166056523105 25.399778195237232 7.571925546257952 0 0 0
4759 318 4 -0.115 7.689499857503403 24.352138753165445 5.407799823916306 0 0 0
2009 134 14 0.115 3.073532917582089 25.663115307334575 9.601826333020085 -1 2 0
4758 318 3 -0.115 7.261763600245023 25.398443013213058 6.226498319583921 0 0 0
2705 181 5 -0.115 6.2676132950966945 30.94706454071464 3.8152156130665134 0 2 1
145 10 10 0.06 7.50019643892614 29.62963053913562 8.911001005890153 1 -3 0
2703 181 3 -0.115 7.471228010975026 29.55752140348754 5.4053008835577065 0 2 1
4766 318 11 0.115 6.75934576939455 26.250727643429137 5.79390728634649 0 0 0
1998 134 3 -0.115 3.025752566700912 28.893271148510387 7.5635079413386475 -1 2 0
136 10 1 -0.065 6.996656589682311 30.380344491240177 9.556326577790403 1 -3 0
2922 195 12 0.115 3.2082222653892534 24.373062206151282 4.985683548508254 0 -1 -3
2006 134 11 0.115 3.117599139583124 29.743874324090694 6.954127382190461 -1 2 0
2707 181 7 -0.115 7.242232700453991 28.855519642873634 3.1174836387783125 0 2 1
2914 195 4 -0.115 3.5911983958558547 23.504420576797827 4.621190062778464 0 -1 -3
2002 134 7 -0.115 3.353765053451422 26.491925472016298 7.748580125543317 -1 2 0
2072 139 2 -0.115 3.3164513162892666 22.7734186070252 11.058345092091 0 1 0
4767 318 12 0.115 7.573170751598137 24.43115658729525 4.304974947052337 0 0 0
2073 139 3 -0.115 3.7137481781794994 23.63361952553078 12.117106561746784 0 1 0
2010 134 15 0.115 3.8355932992637483 25.594356759523365 7.347468759573174 -1 2 0
2001 134 6 -0.115 3.084705504363255 26.542836703224715 9.096033774110344 -1 2 0
2079 139 9 0.06 5.039065162476149 23.25839270802727 9.833130253068111 0 1 0
1997 134 2 -0.115 3.4077469632553092 27.668251365744574 6.987086473086151 -1 2 0
2704 181 4 -0.115 6.71402144934247 30.711878922464443 5.143070794365579 0 2 1
4763 318 8 0.06 7.608539448545488 26.690621140206748 9.257628641031419 0 0 0
2913 195 3 -0.115 4.4023690617863895 22.72222077062234 5.467760061486162 0 -1 -3
4765 318 10 0.06 6.422413717946504 27.350757146427576 8.087976963513167 0 0 0
2004 134 9 0.06 4.318405146305044 26.61774080886368 5.351338613409341 -1 2 0
2713 181 13 0.115 5.6772518372066845 31.799126654812003 3.6459458750282545 0 2 1
144 10 9 0.06 6.329709183171268 29.949149090690952 10.2191170738345 1 -3 0
2915 195 5 -0.115 3.159993822979156 22.96977675593688 3.422078538120109 0 -1 -3
4764 318 9 0.06 6.056859857076141 25.944576730032985 9.082922458348182 0 0 0
2005 134 10 0.06 4.352136253050507 28.389844032773237 5.208038272345249 -1 2 0
2712 181 12 0.115 6.5896265608003874 31.433947618783005 5.922510053838565 0 2 1
2921 195 11 0.115 4.598565093479182 23.06972054603839 6.469841104700425 0 -1 -3
1996 134 1 -0.065 3.6837201704579665 27.50526931698882 5.517061918757042 -1 2 0
143 10 8 0.06 6.476020809843252 31.009301130227303 8.880080490237443 1 -3 0
4756 318 1 -0.065 6.824521406183743 26.417915876926962 8.506115090979623 0 0 0
2081 139 11 0.115 4.797742995658982 23.869685848958852 12.17715661823088 0 1 0
919 62 4 -0.115 7.78268924821852 26.60487356966422 12.620218337563951 -2 1 0
927 62 12 0.115 7.126672816293305 27.47729594076937 12.608887562446958 -2 1 0
4683 313 3 -0.115 6.95117351748618 32.26475979670464 18.97727255346435 0 -1 2
4234 283 4 -0.115 3.6677101183819807 27.81367965709384 13.615994418330196 0 0 2
4690 313 10 0.06 5.920282801752997 29.849425472353197 19.87378907608534 0 -1 2
2840 190 5 -0.115 6.7536939376157115 25.050827912895432 20.05571267085854 -2 -1 -3
4689 313 9 0.06 6.746554669853952 28.883593269742956 18.72070594113812 0 -1 2
2844 190 9 0.06 6.654287694768981 26.255276714461676 15.550118665388942 -2 -1 -3
3532 236 7 -0.115 3.4866144777612065 29.898273917725263 21.86840384887597 2 0 -1
2848 190 13 0.115 6.614651433441422 24.576473102062863 21.032628027654074 -2 -1 -3
2837 190 2 -0.115 6.994387764090492 26.305758266449715 17.48572096013348 -2 -1 -3
4168 278 13 0.115 5.396056276008615 23.004034503866 17.97048299330459 0 1 0
4240 283 10 0.06 5.8935712339377435 31.312087486474304 14.476457317663053 0 0 2