LAMMPS data file via write_data, version 29 Aug 2024, timestep = 1000000, units = real

5832 atoms
8 atom types
5103 bonds
7 bond types
7290 angles
10 angle types
3645 dihedrals
5 dihedral types
2187 impropers
3 improper types

1.2015610204937097 43.79843897951713 xlo xhi
1.2015610204937097 43.79843897951713 ylo yhi
1.2015610204937097 43.79843897951713 zlo zhi

Masses

1 12.011
2 15.999
3 15.999
4 12.011
5 1.008
6 1.008
7 1.008
8 1.008

Pair Coeffs # lj/cut/coul/long

1 0.105 3.75
2 0.21 2.96
3 0.17 3
4 0.066 3.5
5 0.015 2.42
6 0.015 2.42
7 0.015 2.42
8 0.015 2.42

Bond Coeffs # harmonic

1 570 1.229
2 214 1.327
3 320 1.41
4 340 1.09
5 340 1.09
6 340 1.09
7 340 1.09

Angle Coeffs # harmonic

1 83 123.4
2 83 116.9
3 35 123
4 35 109.5
5 35 109.5
6 35 109.5
7 40 115
8 33 107.8
9 33 107.8
10 33 107.8

Dihedral Coeffs # opls

1 0 5.124 0 0
2 0 0 0.198 0
3 4.669 5.124 0 0
4 0 0 0.198 0
5 0 0 0.198 0

Improper Coeffs # cvff

1 10.5 -1 2
2 0 -1 2
3 0 -1 2

Atoms # full

777 98 1 0.51 2.305473164726693 7.972926921236649 5.162671216968648 3 0 2
5275 660 3 -0.33 8.407510727757527 7.0975993447329335 10.611426454801116 1 -1 0
4041 506 1 0.51 5.723139351818223 4.405562015917796 3.5528965367299814 -1 0 -1
4758 595 6 0.03 9.10168181337812 11.876011216968546 8.194952728968655 0 -2 1
3565 446 5 0 8.117308686853947 9.072642452883265 7.696348844139592 -1 0 2
5116 640 4 0.16 2.4956356350797293 1.4839766703186044 3.0002272035986275 -1 0 1
5276 660 4 0.16 8.249048305780857 5.808897185099886 11.069967348194634 1 -1 0
5279 660 7 0.03 7.913693529888148 5.1914920916575 10.256220708856617 1 -1 0
3693 462 5 0 10.368407166284504 5.465353201220129 5.091225464581454 -2 0 1
2569 322 1 0.51 4.948164220687117 7.385349385758518 9.13642993159348 2 -1 -1
781 98 5 0 3.3013265769527824 8.345149087884616 4.974552449994066 3 0 2
1042 131 2 -0.43 10.794126148805715 2.4899656518390447 5.544085151327074 1 1 1
779 98 3 -0.33 2.160415028359453 7.162277765476288 6.15778983820907 3 0 2
4043 506 3 -0.33 6.723525884040355 3.8777649898233975 3.055188688903174 -1 0 -1
4754 595 2 -0.43 9.209970381879256 14.53580167930539 10.861590922000135 0 -2 1
4042 506 2 -0.43 5.510328520723004 4.292471319676984 4.7564556651986045 -1 0 -1
4044 506 4 0.16 7.886213062384812 3.5348453510289004 3.855219116242748 -1 0 -1
490 62 2 -0.43 6.100561412075076 3.7619183542648775 9.007059908372186 1 2 0
4048 506 8 0.03 8.582536833494824 3.036633085047182 3.1827353492772565 -1 0 -1
2720 340 8 0.03 10.703647449246171 12.393221077186134 1.359829434305832 -1 2 2
313 40 1 0.51 7.32956627476499 12.855486391767913 1.9005373294366255 3 -1 3
2573 322 5 0 5.472546864449146 6.456814912039064 9.061678973593054 2 -1 -1
2571 322 3 -0.33 3.623072291583344 7.2598475233011674 9.122087545847013 2 -1 -1
1048 131 8 0.03 8.884493397191942 3.4815530338134457 8.590905817135933 1 1 1
4631 579 7 0.03 11.712184752345568 1.9511152297273706 2.121970633283603 1 -1 1
5794 725 2 -0.43 2.7544657256864764 2.5664960300386004 10.631876145231624 0 0 2
1047 131 7 0.03 9.1503292539137 4.581325561613594 7.329949657274474 1 1 1
3562 446 2 -0.43 8.554751040219578 7.080364806294998 7.395925591938127 -1 0 2
4046 506 6 0.03 7.540468120499462 2.919679139260125 4.708578632179775 -1 0 -1
1044 131 4 0.16 9.300565237002907 3.5323983594613915 7.564843344733683 1 1 1
491 62 3 -0.33 5.628589003631156 1.6807491697811452 8.328804097337041 1 2 0
4152 519 8 0.03 7.895711094980488 8.464198983769926 2.547896731232042 1 0 -1
4047 506 7 0.03 8.27118304945236 4.482558765356469 4.237581616340307 -1 0 -1
5726 716 6 0.03 11.75091670470794 6.5606973685721615 7.053532890714803 0 2 -3
1046 131 6 0.03 8.667201287692532 2.847380230657399 6.945277064837598 1 1 1
493 62 5 0 5.123584487564731 3.2980603900952676 7.1621648480740685 1 2 0
489 62 1 0.51 5.5617680381619 2.9373959310100126 8.163355551279345 1 2 0
778 98 2 -0.43 1.4429690296633149 8.185170065904952 4.313857598423125 3 0 2
5278 660 6 0.03 9.097145699210014 5.280027830485367 11.569327824061249 1 -1 0
3691 462 3 -0.33 10.081044692680798 6.023663615334426 3.1888480850022525 -2 0 1
3689 462 1 0.51 10.82925262420166 6.0211215469342605 4.31131754937819 -2 0 1
3692 462 4 0.16 10.569318306710878 6.701420811086425 2.0432925568515037 -2 0 1
5793 725 1 0.51 3.112701082294929 3.745272082219736 10.81220486096654 0 0 2
1041 131 1 0.51 11.3244581744341 2.724103217137676 6.63755678867691 1 1 1
3567 446 7 0.03 7.092351981550132 6.295979661492883 5.392673927765471 -1 0 2
5115 640 3 -0.33 3.938930805852133 1.7151722712303803 3.141838372146993 -1 0 1
1043 131 3 -0.33 10.658505294928624 3.1119070730151788 7.715262441053402 1 1 1
1456 182 8 0.03 9.391936890063418 10.753205796965366 4.0455134057465765 3 0 2
4146 519 2 -0.43 5.77476217449988 7.099084067682888 1.4155877343125747 1 0 -1
4795 600 3 -0.33 2.3485432996079494 1.8163964513181612 6.150569361148939 1 -1 0
5728 716 8 0.03 11.200566961771543 7.058348795460835 8.729233341717048 0 2 -3
3561 446 1 0.51 8.087283666952597 8.146305484213652 7.145106984296125 -1 0 2
3563 446 3 -0.33 7.368461113687712 8.342498093743078 6.038431047925362 -1 0 2
3564 446 4 0.16 7.358491092471304 7.320657179207405 5.060329265734954 -1 0 2
3568 446 8 0.03 8.382523852166724 7.284060862673057 4.561393025572677 -1 0 2
1454 182 6 0.03 9.719301097314398 12.12178236930846 5.124110982162315 3 0 2
4753 595 1 0.51 10.27005134011918 13.870522012707713 10.587140333771634 0 -2 1
3752 469 8 0.03 1.9136799167276952 15.155843093024014 8.718434991310517 4 2 -1
230 29 6 0.03 11.613053655332719 1.9185176797173542 9.75601348871446 1 0 -1
3566 446 6 0.03 6.6334025708523106 7.608664719685745 4.292050826798448 -1 0 2
399 50 7 0.03 10.823192198982683 9.774301906300183 9.317230230837636 0 2 -6
4045 506 5 0 4.915913890881166 4.6404928819463045 2.829205932329785 -1 0 -1
495 62 7 0.03 6.560604628639867 1.7998977792985351 10.17555113661926 1 2 0
5280 660 8 0.03 7.327523451102658 5.850967593476873 11.58142264786563 1 -1 0
3707 464 3 -0.33 6.172368083542874 10.289032456965806 11.287823001425554 3 5 -2
1774 222 6 0.03 3.543265747854322 11.119840588830888 1.3100171993555694 -1 1 3
4755 595 3 -0.33 10.342081918972335 13.043461235105205 9.576366661158088 0 -2 1
2570 322 2 -0.43 5.497603321617975 8.505440190715923 8.970805783126266 2 -1 -1
4150 519 6 0.03 6.78119544046843 9.329739255403771 1.4092361031686564 1 0 -1
2572 322 4 0.16 2.822460963005247 8.37694816191946 9.430256621229214 2 -1 -1
1771 222 3 -0.33 2.3915330475427954 10.944606132628024 2.9443166120319733 -1 1 3
2277 285 5 0 4.569149116243667 13.995565000277743 6.046988299828036 2 -1 -3
1775 222 7 0.03 4.046014764169609 9.851111012374776 2.4821009858758902 -1 1 3
2273 285 1 0.51 5.325657781729582 13.329609759522452 5.568971934344141 2 -1 -3
3748 469 4 0.16 1.6546052999286087 14.350377797933943 8.051808088843686 4 2 -1
2276 285 4 0.16 5.745502311449892 10.921082814866143 5.479376371613502 2 -1 -3
3745 469 1 0.51 2.3987959144207145 12.139832168417607 7.7016310997044055 4 2 -1
3190 399 6 0.03 10.857951650190943 14.494161856461254 5.502426162773969 -6 0 -2
3187 399 3 -0.33 10.974312345022653 14.897427593903561 3.50362187159907 -6 0 -2
4148 519 4 0.16 7.752108503757334 8.869985374968044 1.5464383892292297 1 0 -1
3705 464 1 0.51 6.030671802200841 11.170037645634117 10.285706739995645 3 5 -2
4759 595 7 0.03 9.412526745791148 13.694802808738345 7.811647006611682 0 -2 1
2543 318 7 0.03 2.6126366253104365 13.145300772696372 10.84367021014282 1 -3 -1
3188 399 4 0.16 11.536727312985109 14.43432888232995 4.675955280698006 -6 0 -2
2275 285 3 -0.33 4.945585930882155 11.970484620360399 5.901928341759405 2 -1 -3
2278 285 6 0.03 6.267519658055741 11.243369782349905 4.539854729807811 2 -1 -3
2576 322 8 0.03 3.2897360360826173 9.210785655957698 8.90757816132526 2 -1 -1
1772 222 4 0.16 3.681667841879656 10.87997688304031 2.3591585608275816 -1 1 3
3696 462 8 0.03 11.561282887902895 6.381234281208825 1.6895299829456039 -2 0 1
3749 469 5 0 3.0717766178915262 11.37481087003288 8.014967405002142 4 2 -1
2653 332 5 0 4.2680768806624965 6.2731153512839475 11.548036165808542 -2 1 1
3709 464 5 0 6.907494408851716 11.137891162601829 9.61547004788689 3 5 -2
317 40 5 0 7.372750830489059 13.560744528479159 2.7203716512778398 3 -1 3
2575 322 7 0.03 1.894221304044554 8.21960579021618 8.969726672264628 2 -1 -1
1451 182 3 -0.33 11.255667582934194 10.675175295290062 4.749318671923061 3 0 2
3706 464 2 -0.43 5.07538752856737 11.905093178191892 10.067948874848318 3 5 -2
2574 322 6 0.03 2.640000216844471 8.627381947799595 10.524034976802303 2 -1 -1
1452 182 4 0.16 9.91846186154334 11.033490725770807 4.951003292569317 3 0 2
4757 595 5 0 11.177428827096305 14.008344722308339 11.208724762114283 0 -2 1
5795 725 3 -0.33 2.3470784928886825 4.875476336151582 10.74779543546325 0 0 2
4756 595 4 0.16 9.258694016875943 12.916450402930963 8.63217681711357 0 -2 1
1776 222 8 0.03 4.377148384547375 11.535834425091327 2.8366932824765003 -1 1 3
1455 182 7 0.03 9.513668638077164 10.453475909258295 5.741914758877135 3 0 2
1769 222 1 0.51 1.985074048165324 12.111572823797287 3.419164829828646 -1 1 3
314 40 2 -0.43 6.91946490222159 11.712089164502267 2.076319742048608 3 -1 3
2280 285 8 0.03 6.610113781207244 10.743385662719376 6.1291899056553545 2 -1 -3
3694 462 6 0.03 10.537098983881343 7.730301373531086 2.2095162972195483 -2 0 1
2274 285 2 -0.43 6.3575858222399075 13.628145690183146 4.88049997345389 2 -1 -3
4760 595 8 0.03 8.237120873437942 13.031434366699516 9.03756277137205 0 -2 1
2540 318 4 0.16 1.9070404919866644 13.550424027405228 11.638710224809186 1 -3 -1
3751 469 7 0.03 1.8909869236487684 14.607991581934433 7.0163376419191215 4 2 -1
3826 479 2 -0.43 9.13397162904426 2.3867040452991928 11.658488932309565 -4 2 2
5797 725 5 0 4.09002963129954 3.769852809598817 11.169024961859549 0 0 2
1770 222 2 -0.43 2.5411771601100153 13.185162951524662 3.1958982288614664 -1 1 3
2279 285 7 0.03 5.2912529705094995 9.959258556826699 5.310388517031892 2 -1 -3
3747 469 3 -0.33 2.378950928538151 13.257665143287793 8.456720392690062 4 2 -1
4272 534 8 0.03 4.846046344185377 14.856811128520718 2.9614289125000703 4 1 -4
5119 640 7 0.03 1.9033731675064771 2.3925865435154465 3.1319051375573137 -1 0 1
396 50 4 0.16 11.544006126561145 9.934120098373265 10.15989966424703 0 2 -6
400 50 8 0.03 11.10175329622838 10.402652483331652 11.006996600197162 0 2 -6
3746 469 2 -0.43 1.83745886467343 12.001484015462436 6.639462477787224 4 2 -1
5277 660 5 0 8.840905912836762 9.02021741453007 11.115257099626758 1 -1 0
2542 318 6 0.03 1.230839024561011 14.28325536630973 11.138555073575763 1 -3 -1
5273 660 1 0.51 8.64997808658853 8.04981583405176 11.54063034451645 1 -1 0
4151 519 7 0.03 8.523506755467755 9.668563504657158 1.332767440416793 1 0 -1
4630 579 6 0.03 10.204784031802609 1.5809965608883227 1.2349816401226876 1 -1 1
5117 640 5 0 5.88844055518577 1.2371698834273468 2.6469901171290333 -1 0 1
3192 399 8 0.03 11.841577120691795 13.438405085630787 4.56520447513724 -6 0 -2
398 50 6 0.03 11.776721849963623 8.90044492850025 10.390220371309647 0 2 -6
2527 316 7 0.03 4.7379608478362805 3.565590261348318 19.26397955705443 -1 -2 0
2522 316 2 -0.43 3.60902602201192 6.139498516721766 19.363103363856847 -1 -2 0
5737 718 1 0.51 8.577156740807812 5.120779322554256 19.694934661143588 0 1 0
2523 316 3 -0.33 5.552754906984393 5.26060595579346 20.298735437164954 -1 -2 0
2521 316 1 0.51 4.821847062195124 6.217773400835233 19.722923667647272 -1 -2 0
5741 718 5 0 7.847071590253901 5.861701582402198 19.611257888196455 0 1 0
5738 718 2 -0.43 8.293903667539539 3.911578609356633 19.49781554397922 0 1 0
5405 676 5 0 1.9054025369037006 2.385056496007495 13.439322955932711 -3 0 3
3729 467 1 0.51 8.332146140126456 6.083871169377161 15.933625888775204 0 1 3
5740 718 4 0.16 10.889100441164738 4.680669287070307 19.25567492932788 0 1 0
3735 467 7 0.03 7.099479872490861 4.094731233749867 17.098550091426883 0 1 3
3732 467 4 0.16 6.534389032272342 4.786970028338859 16.448283839983418 0 1 3
2651 332 3 -0.33 4.618270402832863 7.378326189147573 13.169964240207447 -2 1 1
5739 718 3 -0.33 9.848334063538791 5.602983381080606 19.59335106371227 0 1 0
94 12 6 0.03 10.629141700930967 13.227881055922385 19.26568641088793 0 1 -1
3731 467 3 -0.33 7.293903809688104 5.4860335435900085 15.49539274519955 0 1 3
2156 270 4 0.16 1.7234938421931254 12.186068786612482 15.647638510876707 0 0 6
5407 676 7 0.03 2.9578336304840955 5.803699695110455 15.373105785297398 -3 0 3
5401 676 1 0.51 2.291975345508299 2.902445100659097 14.291770981993048 -3 0 3
3832 479 8 0.03 6.580244988385803 2.7997405212084043 12.349774188115106 -4 2 2
3831 479 7 0.03 6.320296046631787 2.293458640181135 14.168685073389058 -4 2 2
5406 676 6 0.03 1.5449780917789977 5.069321628693331 16.236458337517824 -3 0 3
2526 316 6 0.03 5.640137339053036 3.2166346073608016 20.878916569009867 -1 -2 0
3736 467 8 0.03 5.829468030577741 4.131892835743898 15.87298936297517 0 1 3
5408 676 8 0.03 3.126661142032206 4.299037923835719 16.306219086640475 -3 0 3
3830 479 6 0.03 7.53581212502145 3.4447530405148483 13.771922812469404 -4 2 2
2524 316 4 0.16 4.954020618803719 3.9319141036080634 20.325485104939776 -1 -2 0
1142 143 6 0.03 11.058534004229095 5.9849432917493255 13.576510080664484 2 2 -2
3734 467 6 0.03 6.057852017611735 5.524122256823006 17.158812789747312 0 1 3
2649 332 1 0.51 4.608793457081102 6.219456633641034 12.55513660672781 -2 1 1
530 67 2 -0.43 3.426013940821391 8.144825091068014 16.586003271767733 1 4 2
2727 341 7 0.03 4.543183609150974 2.5945537466799413 16.95873891587221 2 3 1
3733 467 5 0 9.047175737239876 6.236470130458912 15.137343981142335 0 1 3
5832 729 8 0.03 8.660748525634197 9.107845711287666 19.414887643335835 2 0 2
91 12 3 -0.33 9.40693162334199 13.504934647186909 20.900089252902962 0 1 -1
5828 729 4 0.16 8.927211144543033 9.154227459481781 20.52794149137436 2 0 2
4587 574 3 -0.33 1.3007009022421463 10.687460849103045 20.691437256474835 0 0 0
3828 479 4 0.16 6.981526866941064 2.5464560968888827 13.337175377674713 -4 2 2
5827 729 3 -0.33 8.538082449021465 7.950344542165173 21.078068163315802 2 0 2
5831 729 7 0.03 8.265487164264027 9.959945099232549 20.997117149716576 2 0 2
3331 417 3 -0.33 2.288229172948283 1.4942428855497485 20.81572253078341 0 2 1
3584 448 8 0.03 4.412050160226682 15.061717954204397 14.666892425822471 -1 0 -2
2525 316 5 0 5.409954614054302 7.13705970356513 19.63689188240674 -1 -2 0
534 67 6 0.03 5.928918838046245 9.82733703982435 16.977885534117632 1 4 2
2539 318 3 -0.33 1.3237263699895325 12.557008484274778 12.427721775734067 1 -3 -1
5404 676 4 0.16 2.440152712539496 4.864164276027461 15.639161451238673 -3 0 3
5742 718 6 0.03 10.513696820248997 3.7664878757964195 19.668052693673097 0 1 0
5744 718 8 0.03 10.900285703668416 4.567466920635485 18.15174779094571 0 1 0
5274 660 2 -0.43 8.467833240161076 7.930228686921705 12.75647192895168 1 -1 0
2650 332 2 -0.43 4.784336272077125 5.138693310582369 13.059437978112888 -2 1 1
758 95 6 0.03 10.94616374723089 8.381790395295031 16.991110450410382 0 -3 1
3730 467 2 -0.43 8.337020912557911 6.658276726995508 17.030143823020822 0 1 3
5402 676 2 -0.43 2.5553395063715083 2.232706992278421 15.289566353438444 -3 0 3
2724 341 4 0.16 4.619382338961275 1.514505094507644 17.137546648000225 2 3 1
2656 332 8 0.03 4.805790769095669 6.864745217286498 15.286003488460054 -2 1 1
2528 316 8 0.03 4.017857173769528 4.032176823311986 20.79038974318846 -1 -2 0
600 75 8 0.03 10.04762585856502 10.457482714111723 15.35660176372659 3 2 3
2544 318 8 0.03 2.5687937436240826 14.155837496698508 12.25405394226507 1 -3 -1
5403 676 3 -0.33 2.1110547591783706 4.192603737198635 14.400596188687564 -3 0 3
4588 574 4 0.16 2.4556105144061453 10.104071122112588 21.434604930713316 0 0 0
2155 270 3 -0.33 1.7392081455446544 11.982890263943233 17.051092714707483 0 0 6
4248 531 8 0.03 11.341294070739703 1.93294713101315 13.737093054317917 -2 2 0
4242 531 2 -0.43 10.887888110579368 3.913384436332969 15.581147724535398 -2 2 0
64 8 8 0.03 3.5589264159671923 12.60197399131213 19.580760695926102 -1 -1 4
756 95 4 0.16 11.600577110703192 8.029473268347562 17.817686735387394 0 -3 1
529 67 1 0.51 3.246121247145167 8.958215531372486 17.464280759452606 1 4 2
96 12 8 0.03 9.045912070610377 12.358028514838468 19.18957552537347 0 1 -1
62 8 6 0.03 3.133413455681879 12.631184890793232 21.38401887660563 -1 -1 4
89 12 1 0.51 8.315226087473297 12.973740238573452 21.575855476869652 0 1 -1
57 8 1 0.51 1.7868180451469042 14.678515457294422 20.14051319014112 -1 -1 4
63 8 7 0.03 4.667446231411441 13.250194695728164 20.865039315397535 -1 -1 4
1140 143 4 0.16 11.770662487605874 6.319272454089654 12.865151747947133 2 2 -2
532 67 4 0.16 5.599681201967588 9.19196659590004 17.84961639559737 1 4 2
759 95 7 0.03 10.967832179461896 8.099372571394786 18.739921057753172 0 -3 1
536 67 8 0.03 6.230261489601663 9.506016213836979 18.667875638094177 1 4 2
595 75 3 -0.33 8.976752044730526 12.167575737373706 14.899305881335913 3 2 3
5830 729 6 0.03 10.005850659580318 9.352525162663106 20.68093526610405 2 0 2
2652 332 4 0.16 5.176656295728619 7.485370103840038 14.501831050976433 -2 1 1
2655 332 7 0.03 6.195871258680324 7.18278542335645 14.455269048103341 -2 1 1
3711 464 7 0.03 5.0342723473917985 11.48652891293523 12.49720291820184 3 5 -2
594 75 2 -0.43 8.606519135882593 11.513584349759519 12.712654212374586 3 2 3
1144 143 8 0.03 11.656847252364452 5.665740059458874 12.006995923185299 2 2 -2
59 8 3 -0.33 3.10649245434798 14.476093317294499 20.444927292967545 -1 -1 4
535 67 7 0.03 5.720591756358081 8.122801593864013 17.74611285695961 1 4 2
2158 270 6 0.03 2.7115035179847355 12.363827879642395 15.26421186324408 0 0 6
1139 143 3 -0.33 11.490963847864842 7.678082944011317 12.600064125342204 2 2 -2
3578 448 2 -0.43 3.8226937062173127 13.816030370121979 16.976888008432315 -1 0 -2
95 12 7 0.03 9.111533945439728 14.133195344980289 18.989408480687555 0 1 -1
4590 574 6 0.03 2.7361356190800636 10.733935163837812 22.312796510124233 0 0 0
3827 479 3 -0.33 7.749490629310368 1.362881907263542 13.147763988771015 -4 2 2
3710 464 6 0.03 4.5218704117456126 9.852514366348556 12.279927128029986 3 5 -2
3708 464 4 0.16 5.376229817551771 10.491781163803854 12.431621120736056 3 5 -2
3712 464 8 0.03 5.8672617597816705 10.21546419328214 13.35071078626475 3 5 -2
90 12 2 -0.43 7.4310416678274684 12.261455045369074 21.132851245144586 0 1 -1
92 12 4 0.16 9.550363648740756 13.275639755676302 19.4955179494397 0 1 -1
593 75 1 0.51 9.007112147756416 12.307148872053082 13.555633449483572 3 2 3
5629 704 5 0 6.592863448325486 1.226155046677982 20.669942751311908 -1 -3 -2
2654 332 6 0.03 5.128369334713658 8.499044686242954 14.79780741620229 -2 1 1
4496 562 8 0.03 1.3454567388332468 2.74449800978314 17.498518928799452 -1 1 -1
531 67 3 -0.33 4.205084142696121 9.439556937381234 18.18077373932551 1 4 2
598 75 6 0.03 8.484772184232988 10.059799012073253 14.927388392473869 3 2 3
597 75 5 0 9.198988438428367 13.372936463640782 13.236995320227528 3 2 3
533 67 5 0 2.303017943400413 9.391927955068061 17.67119768092415 1 4 2
4591 574 7 0.03 3.247526041970222 10.00097496177342 20.777150397889056 0 0 0
60 8 4 0.16 3.5886852103011266 13.10055811685376 20.564374969021245 -1 -1 4
596 75 4 0.16 9.031251084248705 10.858348700734677 15.379477867519437 3 2 3
599 75 7 0.03 8.904131983369503 10.89549286156124 16.511074611042453 3 2 3
3329 417 1 0.51 1.490047298780358 1.8299433527229934 21.833083403317712 0 2 1
4879 610 7 0.03 11.383461249802073 14.330778313441826 15.525687604570999 -1 1 2
837 105 5 0 2.456264798947104 8.673900701027545 12.57507855956733 -2 0 1
1943 243 7 0.03 10.646100961215282 2.446068322299156 21.80219117462046 -2 -1 0
1940 243 4 0.16 10.146364123225872 1.8399975581889731 22.472131675317208 -2 -1 0
4592 574 8 0.03 2.2044977036522457 9.15220807533941 21.81680513652524 0 0 0
1589 199 5 0 9.187841261757715 15.090897416137615 14.754913669129962 3 6 -3
833 105 1 0.51 1.7010454573764553 8.232667409308554 13.220502516613534 -2 0 1
5825 729 1 0.51 8.92295053094273 7.447043464036083 22.307781802039532 2 0 2
2975 372 7 0.03 6.12804090432423 15.375290940767998 20.790037546743385 -2 0 1
3577 448 1 0.51 3.964372666053793 14.999452150275147 17.308874087835193 -1 0 -2
2728 341 8 0.03 3.821724265766696 1.2085983901940076 17.83829407295382 2 3 1
3825 479 1 0.51 8.757632255124376 1.4170287128638126 12.400976946189738 -4 2 2
754 95 2 -0.43 11.574684354135774 10.796007084416042 17.375085785395633 0 -3 1
5743 718 7 0.03 11.834380549412755 5.078837763786099 19.662622658107548 0 1 0
3581 448 5 0 4.302883055167028 15.215607215129065 18.292833479528024 -1 0 -2
834 105 2 -0.43 1.3857817895633942 8.772116234189326 14.276705533736125 -2 0 1
3333 417 5 0 1.2502286708650687 2.8700678791774683 21.866799892465966 0 2 1
2159 270 7 0.03 1.252529652500423 13.158711927115995 15.531656134314206 0 0 6
3104 388 8 0.03 11.511112495883822 4.287858874047538 31.417837966664333 1 -1 -1
4374 547 6 0.03 5.597974870548609 3.7835853516018494 25.63685571393259 4 2 1
5417 678 1 0.51 9.522651571084412 9.120661519850977 27.42668665105976 0 0 -1
5421 678 5 0 8.789975470060082 8.649009341067531 28.031445580789597 0 0 -1
4372 547 4 0.16 4.813476688474273 4.077456375299839 25.00994794944569 4 2 1
3083 386 3 -0.33 7.213641833117889 6.752603954360881 28.723036696420742 -1 1 1
3084 386 4 0.16 6.460158049034303 6.32415876748628 27.588389205009438 -1 1 1
3082 386 2 -0.43 5.23328144246068 7.124345154127331 29.8960620261902 -1 1 1
3088 386 8 0.03 6.966454249918863 6.033910832525695 26.671422943717605 -1 1 1
328 41 8 0.03 8.2465240642546 10.434832495341611 31.40690597960312 -1 -1 2
4373 547 5 0 4.344282155763601 6.5335043465318865 22.95929327728493 4 2 1
3087 386 7 0.03 5.773833569729343 5.541846487715696 27.85142872940802 -1 1 1
3081 386 1 0.51 6.444935841663363 7.155629047082498 29.821400202028403 -1 1 1
4369 547 1 0.51 4.1624029670665195 5.579431966908856 23.348891819735616 4 2 1
4370 547 2 -0.43 3.125840813284773 4.951773676241794 23.079196445372276 4 2 1
4371 547 3 -0.33 4.9965494680203655 5.307425666357063 24.315335976224993 4 2 1
3086 386 6 0.03 5.790625376167305 7.161673394988354 27.324537708544145 -1 1 1
5304 663 8 0.03 9.398989109388955 3.735819381125603 27.288059570835014 3 -1 1
4375 547 7 0.03 4.820692972215622 3.2560465186507614 24.267545683025837 4 2 1
3377 423 1 0.51 8.53328053172976 3.9154358720562636 30.67948994626942 2 -1 -4
47 6 7 0.03 5.531727164128495 11.328191952039864 25.800117715878248 4 2 -3
5300 663 4 0.16 8.546845309410463 3.2194884934257817 26.81492755052438 3 -1 1
289 37 1 0.51 5.082017358041117 2.7424607548981523 33.032792253533394 2 0 -1
4376 547 8 0.03 3.8418330756687395 4.034943935265561 25.53796902098277 4 2 1
5826 729 2 -0.43 9.510325848144078 8.21179745837355 23.114526045898284 2 0 2
1937 243 1 0.51 8.47507296926928 3.4154646706497176 23.02467914137617 -2 -1 0
3012 377 4 0.16 2.5836932183608616 5.296895202651721 30.115217755408906 3 0 0
3381 423 5 0 9.426910036427136 4.627392836910367 30.56429184842229 2 -1 -4
3383 423 7 0.03 7.321682198402156 2.004781119497892 31.935708168890443 2 -1 -4
5303 663 7 0.03 8.382996894055946 3.6380696841869273 25.772866357483167 3 -1 1
1274 160 2 -0.43 11.731844468767264 1.9552749300552494 30.019813743629292 -1 1 -1
69 9 5 0 4.615497012169011 14.998722001510053 23.351826266151537 0 -3 2
5419 678 3 -0.33 10.305601636558933 8.21299055037711 27.005496777596356 0 0 -1
3591 449 7 0.03 3.5678551880115066 7.316947959343773 27.256255605275364 3 3 1
5299 663 3 -0.33 8.994463198631747 1.8876047389368502 26.718043902962496 3 -1 1
5302 663 6 0.03 7.646779802872227 3.1892625822611427 27.449766273645213 3 -1 1
1939 243 3 -0.33 8.793536990277726 2.209430737046694 22.5748822783756 -2 -1 0
390 49 6 0.03 5.531175283045168 8.999706208427337 32.6098565293507 -1 1 -1
1938 243 2 -0.43 9.250608475333362 4.247005132061435 23.44250354667241 -2 -1 0
3408 426 8 0.03 11.788215454316262 2.013028525119877 32.567196414341325 0 -1 -2
391 49 7 0.03 4.046406891424438 9.261203283032305 31.775286490267632 -1 1 -1
3378 423 2 -0.43 7.318082880010405 4.297886056311278 30.751525684821694 2 -1 -4
3010 377 2 -0.43 1.232525898673884 3.6527093769555594 28.356536331200367 3 0 0
4341 543 5 0 9.192246547429793 7.146454975882897 32.39433920618308 -3 0 1
1989 249 5 0 4.793228236280598 14.191776634374468 26.793236220402814 -3 1 0
326 41 6 0.03 7.799123750753276 11.376357555376012 32.93142748413034 -1 -1 2
1988 249 4 0.16 6.519314597239431 15.152225359739163 29.451061693342712 -3 1 0
251 32 3 -0.33 1.8432367288781233 12.367091999078013 30.27898552968946 -2 -2 -1
3099 388 3 -0.33 11.318717675353795 6.342936082960326 31.46543262393191 1 -1 -1
1277 160 5 0 10.440505079575171 1.9630950736638737 28.560115971166365 -1 1 -1
72 9 8 0.03 3.403012031636603 12.439816344946601 25.751873053281468 0 -3 2
1942 243 6 0.03 10.580615898169048 1.8388650521023284 23.48771809195295 -2 -1 0
3380 423 4 0.16 7.925791520655903 1.7214634310372416 31.06881354656916 2 -1 -4
3085 386 5 0 6.995977583679237 7.527176360672629 30.71574343528534 -1 1 1
5422 678 6 0.03 10.842043294176454 8.563499951960196 25.001389809356887 0 0 -1
1738 218 2 -0.43 11.50694856471374 9.94337575064585 30.375457212920768 1 -1 1
3590 449 6 0.03 2.0718224899237003 7.128602943032997 26.247240648349727 3 3 1
3015 377 7 0.03 2.853550860621233 5.909266238737051 29.29718300478512 3 0 0
1985 249 1 0.51 5.040649200768298 14.217871917978638 27.85513707279052 -3 1 0
3014 377 6 0.03 3.0494583058451115 5.800191451739165 30.903761747989925 3 0 0
5418 678 2 -0.43 9.545581588895121 10.325393726383956 27.136312915824966 0 0 -1
4070 509 6 0.03 9.966081822934704 14.396580798015057 29.135358622238897 2 -3 0
321 41 1 0.51 6.140622284137342 11.325509029657526 29.987735831394858 -1 -1 2
3588 449 4 0.16 2.8502757865299846 7.814601160355791 26.62885331300811 3 3 1
3592 449 8 0.03 3.340484400892577 8.384793212627297 25.86318247962991 3 3 1
3016 377 8 0.03 3.0447644799827494 4.265258032282477 30.05223378500338 3 0 0
327 41 7 0.03 8.45044259077654 12.124541290306547 31.449461150909073 -1 -1 2
293 37 5 0 4.590779421397734 2.4235993721808997 32.10227027294003 2 0 -1
48 6 8 0.03 6.951525680503795 11.427309750686625 26.677615313317926 4 2 -3
93 12 5 0 8.217897063214986 13.293651862273395 22.615868096913523 0 1 -1
1941 243 5 0 7.399995733404583 3.587425089714872 23.117000343199635 -2 -1 0
68 9 4 0.16 3.1893458080738153 12.275416496730157 24.724710986475184 0 -3 2
250 32 2 -0.43 1.945434517290757 13.047308737511303 32.41996742653281 -2 -2 -1
3379 423 3 -0.33 8.899632616315564 2.641976619876891 30.716442332392955 2 -1 -4
45 6 5 0 6.934949669647425 10.48907453260362 22.56032565873779 4 2 -3
66 9 2 -0.43 3.504978578881763 15.010336869086908 24.966227971621898 0 -3 2
41 6 1 0.51 6.604550599596789 10.16597296990796 23.600706306877644 4 2 -3
322 41 2 -0.43 7.113698807550356 11.18417719616637 29.239498585968224 -1 -1 2
253 32 5 0 3.513398750590976 12.236344047755155 31.36298792232451 -2 -2 -1
70 9 6 0.03 3.250348955070897 11.222271896962479 24.654679346520908 0 -3 2
44 6 4 0.16 6.535888418475602 10.877844538725997 25.890015343705276 4 2 -3
5420 678 4 0.16 11.270549109983953 8.480781450755138 25.994119685306973 0 0 -1
1741 218 5 0 10.396576921800316 11.510000919272061 29.605138354817385 1 -1 1
1986 249 2 -0.43 4.422317942397474 13.620438843594798 28.744307419568017 -3 1 0
325 41 5 0 5.119004701420131 11.412763151653158 29.71993866756906 -1 -1 2
1273 160 1 0.51 11.317822866636439 1.5657393331912548 28.97439683572999 -1 1 -1
4068 509 4 0.16 10.854600701171044 15.037912770635886 29.131797566346183 2 -3 0
43 6 3 -0.33 7.192615091789082 10.888943871738565 24.62629432839568 4 2 -3
3586 449 2 -0.43 3.9469850752786266 10.042707083933685 27.87608239314906 3 3 1
42 6 2 -0.43 5.667610875321268 9.292476202665767 23.724555179641282 4 2 -3
249 32 1 0.51 2.4875648249951627 12.601281787884236 31.411075888231515 -2 -2 -1
4071 509 7 0.03 11.727086621938914 14.66482579801593 28.636277228725863 2 -3 0
3587 449 3 -0.33 2.16695798569723 8.693042485345456 27.426048746160152 3 3 1
1987 249 3 -0.33 6.098910731006945 14.946517972613647 28.15625561949488 -3 1 0
46 6 6 0.03 6.437879482300404 9.855617578597915 26.179292029134963 4 2 -3
5504 688 8 0.03 8.798325245302614 13.433847001303405 26.663656014924555 2 3 -1
5503 688 7 0.03 7.1908380062344985 13.62518549993503 25.854468932882643 2 3 -1
5502 688 6 0.03 8.605171751161679 13.418972526351482 24.935546549040637 2 3 -1
5500 688 4 0.16 8.246394518754672 13.848144771491098 25.8509449331526 2 3 -1
71 9 7 0.03 2.099865215414697 12.518121541130622 24.657569824403886 0 -3 2
3097 388 1 0.51 11.713821543588056 6.594895427160353 30.15378292222846 1 -1 -1
3585 449 1 0.51 2.7329316650991675 9.90807030162254 27.786012831796583 3 3 1
323 41 3 -0.33 6.393859669237438 11.455069088396854 31.303965957819944 -1 -1 2
3101 388 5 0 11.362273835887986 7.563166610552205 29.84616951286938 1 -1 -1
67 9 3 -0.33 3.937434386328473 13.111949569215733 23.867366716465593 0 -3 2
1737 218 1 0.51 11.34402173242048 10.954120221757115 29.681207477201774 1 -1 1
5499 688 3 -0.33 8.374064675672983 15.229292169970066 25.96737964626375 2 3 -1
3589 449 5 0 2.0105050860707174 10.633457963097635 28.213281277233495 3 3 1
388 49 4 0.16 4.471836599837714 9.190245091044384 32.74900547308965 -1 1 -1
1991 249 7 0.03 7.045460995359336 14.202134112174312 29.77277556383178 -3 1 0
324 41 4 0.16 7.729471060603785 11.295585536409444 31.809237448087483 -1 -1 2
65 9 1 0.51 4.013383127650096 14.426023561772581 23.9818898487191 0 -3 2
3102 388 6 0.03 11.374235852702242 5.04142278322973 33.02158400341057 1 -1 -1
4415 552 7 0.03 4.501079285145193 2.054020753043801 26.972504809263267 2 3 1
1421 178 5 0 2.9453346461420518 5.092366404123669 32.86774142344002 4 0 0
991 124 7 0.03 10.362496323052358 10.463890217280408 32.475502851723306 -4 1 -1
3077 385 5 0 11.802243109624138 5.408508313047616 23.80371320694304 1 0 -1
3100 388 4 0.16 11.786890191077127 5.1435711082024245 31.977254776471934 1 -1 -1
3382 423 6 0.03 7.206683346638704 1.547345109532972 30.266607927534764 2 -1 -4