LAMMPS data file via write_data, version 29 Aug 2024, timestep = 1000000, units = real

6144 atoms
12 atom types
6144 bonds
12 bond types
9216 angles
18 angle types
12288 dihedrals
24 dihedral types
3072 impropers
6 improper types

0.34031823826189367 44.659681761737275 xlo xhi
0.34031823826189367 44.659681761737275 ylo yhi
0.34031823826189367 44.659681761737275 zlo zhi

Masses

1 12.011
2 12.011
3 12.011
4 12.011
5 12.011
6 12.011
7 35.45
8 1.008
9 1.008
10 1.008
11 1.008
12 1.008

Pair Coeffs # lj/cut/coul/long

1 0.07 3.55
2 0.07 3.55
3 0.07 3.55
4 0.07 3.55
5 0.07 3.55
6 0.07 3.55
7 0.3 3.4
8 0.03 2.42
9 0.03 2.42
10 0.03 2.42
11 0.03 2.42
12 0.03 2.42

Bond Coeffs # harmonic

1 469 1.4
2 469 1.4
3 469 1.4
4 469 1.4
5 469 1.4
6 300 1.725
7 367 1.08
8 367 1.08
9 367 1.08
10 367 1.08
11 367 1.08
12 469 1.4

Angle Coeffs # harmonic

1 63 120
2 63 120
3 63 120
4 63 120
5 75 120
6 35 120
7 35 120
8 35 120
9 35 120
10 35 120
11 35 120
12 63 120
13 35 120
14 63 120
15 75 120
16 35 120
17 35 120
18 35 120

Dihedral Coeffs # opls

1 0 7.25 0 0
2 0 7.25 0 0
3 0 7.25 0 0
4 0 7.25 0 0
5 0 7.25 0 0
6 0 7.25 0 0
7 0 7.25 0 0
8 0 7.25 0 0
9 0 7.25 0 0
10 0 7.25 0 0
11 0 7.25 0 0
12 0 7.25 0 0
13 0 7.25 0 0
14 0 7.25 0 0
15 0 7.25 0 0
16 0 7.25 0 0
17 0 7.25 0 0
18 0 7.25 0 0
19 0 7.25 0 0
20 0 7.25 0 0
21 0 7.25 0 0
22 0 7.25 0 0
23 0 7.25 0 0
24 0 7.25 0 0

Improper Coeffs # cvff

1 1.1 -1 2
2 1.1 -1 2
3 1.1 -1 2
4 1.1 -1 2
5 1.1 -1 2
6 1.1 -1 2

Atoms # full

5452 455 4 0.18 4.9274791692591 8.074672482592291 2.079744579811517 -1 -2 -1
5551 463 7 -0.18 4.675647832007044 2.907998461935511 7.383156759397293 1 -1 1
4145 346 5 -0.115 4.131770873177604 7.056904241409385 7.137338746793599 3 0 -2
5458 455 10 0.115 4.518110041744084 10.256957525747966 2.437131599955975 -1 -2 -1
4151 346 11 0.115 4.70124958932503 7.098968292171658 8.063730382868094 3 0 -2
4146 346 6 -0.115 4.24117314186945 6.13275311380672 6.065809819841659 3 0 -2
5555 463 11 0.115 5.819094298840915 4.661804597992057 9.30451670745783 1 -1 1
4144 346 4 0.18 3.138183907172729 8.07860865432901 7.0330040670623495 3 0 -2
482 41 2 -0.115 0.7472123628658538 5.401955582288539 9.04098505314442 0 1 0
5450 455 2 -0.115 2.902706042842 9.280881949440069 1.5257544242573893 -1 -2 -1
2547 213 3 -0.115 2.130604348176302 3.0701854680204406 5.088647436579535 0 0 2
5549 463 5 -0.115 5.111424261705207 4.177492825418458 9.832092347145416 1 -1 1
5457 455 9 0.115 2.4480982131378943 10.265638108374963 1.546109235788925 -1 -2 -1
2551 213 7 -0.18 2.2292943996961014 3.758910022716866 2.484636811272146 0 0 2
5550 463 6 -0.115 4.628989796578464 4.527533381903314 11.121443377552406 1 -1 1
2554 213 10 0.115 3.208414709155554 3.226552452478925 5.027494117630662 0 0 2
4149 346 9 0.115 1.8744583467943725 7.453039283742711 3.90152337733221 3 0 -2
488 41 8 0.115 0.6821428422413494 6.183962963625298 7.005573659008194 0 1 0
5456 455 8 0.115 1.3653977912300033 8.418739424982434 0.4649109869289012 -1 -2 -1
4150 346 10 0.115 1.7078338841071665 9.15563714960877 5.877204520662115 3 0 -2
4148 346 8 0.115 3.483654122218229 5.531342129192193 4.160579162683209 3 0 -2
4147 346 7 -0.18 3.050387313971165 9.22484639715896 8.320456573544377 3 0 -2
5547 463 3 -0.115 3.2182740910026713 2.596970765986476 9.703892947417112 1 -1 1
5554 463 10 0.115 2.757723542428848 1.7603426968795102 9.191955935244827 1 -1 1
4142 346 2 -0.115 2.461293193639994 7.31077214498728 4.806013935643212 3 0 -2
5548 463 4 0.18 4.258388048531657 3.355639542483371 9.087460923581467 1 -1 1
4141 346 1 -0.115 3.3726235275758434 6.292796428187335 4.920995367786602 3 0 -2
4143 346 3 -0.115 2.328562331451973 8.242014425280423 5.846998171560239 3 0 -2
1176 98 12 0.115 0.8726696597391445 7.813942060109764 10.851900963512353 1 0 0
5451 455 3 -0.115 4.168176108392787 9.247902712069832 2.137822840336446 -1 -2 -1
5459 455 11 0.115 5.012910644933058 6.074338509304742 1.2755807957283618 -1 -2 -1
383 32 11 0.115 4.949081894861517 11.26898996671563 6.491330021652361 0 1 -1
4152 346 12 0.115 5.067865178816672 5.356733680227311 6.0866693566591845 3 0 -2
5546 463 2 -0.115 2.7555466315819355 2.948270420487553 11.026508838944576 1 -1 1
489 41 9 0.115 1.8135593187614831 5.278025422147494 9.04987653111769 0 1 0
5453 455 5 -0.115 4.421340565502117 6.961767000600642 1.3729455193100824 -1 -2 -1
2548 213 4 0.18 1.3240772213253105 3.3398162978563226 3.9085474006087524 0 0 2
5449 455 1 -0.115 2.3876900307427067 8.144365669419475 0.8887509065872972 -1 -2 -1
2891 241 11 0.115 4.220339917213977 3.7175028247286037 0.37023536000810353 1 0 0
2546 213 2 -0.115 1.4158451629942284 2.7433348334936682 6.255580165423156 0 0 2
2553 213 9 0.115 1.9064330041036655 2.506715849866375 7.141768037673983 0 0 2
490 41 10 0.115 0.6129844681833287 4.8359602552356336 11.03660844721222 0 1 0
5454 455 6 -0.115 3.1442741296510572 6.992979401551442 0.7374559886341336 -1 -2 -1
3130 261 10 0.115 3.032972014941391 0.8329097992877338 3.8616413155788925 -1 0 1
1175 98 11 0.115 3.105928266424389 7.053581021584825 11.366973133202682 1 0 0
1170 98 6 -0.115 1.1386954675793977 7.547806142505706 11.863585837658194 1 0 0
5216 435 8 0.115 3.831803272948016 2.560157325197252 15.797896692161489 2 1 2
5213 435 5 -0.115 2.771722539224486 5.112452565194148 17.904986244514397 2 1 2
1174 98 10 0.115 2.156013102190209 7.060253591809028 15.52488086806309 1 0 0
1171 98 7 -0.18 4.469223065312118 6.575952804162523 13.9523777897076 1 0 0
412 35 4 0.18 0.7260817553448318 1.4257131429049112 16.130809236306273 -1 1 0
5212 435 4 0.18 3.5859484732178433 4.838380969699338 19.01563958071695 2 1 2
216 18 12 0.115 5.506669829283452 8.37431051982669 20.013081761306054 1 0 -1
5217 435 9 0.115 5.151372354487278 1.9679004441950085 17.83050790732869 2 1 2
1168 98 4 0.18 2.8598706765976987 6.966613645715353 13.505917657165632 1 0 0
1166 98 2 -0.115 0.6263626079551778 7.849960978887107 14.218008764240953 1 0 0
5556 463 12 0.115 5.092940623496767 5.3000723381421455 11.700246802562988 1 -1 1
5545 463 1 -0.115 3.4652298949430502 3.8767483490023182 11.721635054430564 1 -1 1
2217 185 9 0.115 5.710312179318522 4.152826958542533 14.484715146591189 1 3 0
1155 97 3 -0.115 4.758967695284452 11.030624152797719 12.589750932773574 0 -1 -2
1154 97 2 -0.115 3.8549336977333475 10.705040741176656 13.64346296138852 0 -1 -2
5218 435 10 0.115 5.164422697195581 3.484941206117487 19.690244197501226 2 1 2
5209 435 1 -0.115 3.67371385536356 3.1807449551297955 16.72379844998699 2 1 2
411 35 3 -0.115 0.5367244398739454 2.181102159106435 14.955911451230842 -1 1 0
4074 340 6 -0.115 2.145487259360039 2.2375525387765265 20.7691272916729 0 1 1
5215 435 7 -0.18 3.4694305608979215 5.7600618624459905 20.37495568309385 2 1 2
5220 435 12 0.115 2.245210038223795 4.638843684911149 15.808191320029191 2 1 2
1162 97 10 0.115 5.640412193564077 10.332014816382177 12.504406681739185 0 -1 -2
1153 97 1 -0.115 2.5715131194677214 11.326469121479159 13.680894579911408 0 -1 -2
1169 98 5 -0.115 2.4158437378218474 7.1978119332483645 12.18631735172131 1 0 0
1085 91 5 -0.115 3.053537096611745 10.407325189017138 19.984016444185272 -2 0 0
5214 435 6 -0.115 2.777151512728646 4.283611795702937 16.735312465449958 2 1 2
5552 463 8 0.115 3.0891749766051615 4.238562293022742 12.720588678946994 1 -1 1
418 35 10 0.115 1.216338354240635 1.9384316163212258 14.12737779964598 -1 1 0
5210 435 2 -0.115 4.433062680016506 2.819581393185412 17.830936469722705 2 1 2
1092 91 12 0.115 2.6566647529637533 9.12138131245903 18.25183961895157 -2 0 0
1167 98 3 -0.115 1.8931450281049804 7.285612281083559 14.521214083116927 1 0 0
5219 435 11 0.115 2.1408634236632875 5.916560605036976 17.87495780352338 2 1 2
4071 340 3 -0.115 0.8873096781498171 4.305227671650524 22.271473495303493 0 1 1
4079 340 11 0.115 0.7590405677203346 2.724986901060531 19.162232615033055 0 1 1
1086 91 6 -0.115 2.2235058937093397 9.690541935682694 19.16717497520918 -2 0 0
4080 340 12 0.115 2.7148263904205057 1.5417291290370363 20.147039056281347 0 1 1
1081 91 1 -0.115 0.7845647400623635 9.738115061037563 19.362297549112455 -2 0 0
5211 435 3 -0.115 4.461678017056983 3.709841460692843 18.924795741622315 2 1 2
1161 97 9 0.115 4.06069616548441 9.87751077427191 14.29530149049786 0 -1 -2
1160 97 8 0.115 1.914342652424911 11.060228838245939 14.551844280569036 0 -1 -2
4069 340 1 -0.115 2.5681370484211876 2.6127667797115204 22.077415237707168 0 1 1
4072 340 4 0.18 0.4590949121408965 3.974227590430184 20.969467935216866 0 1 1
4073 340 5 -0.115 1.0480008344185225 2.880959220560974 20.248643734030473 0 1 1
1091 91 11 0.115 4.1158833921795175 10.409281939747386 19.872747750489825 -2 0 0
5553 463 9 0.115 1.8517188355302863 2.5613159455254175 11.542902422209623 1 -1 1
1083 91 3 -0.115 1.0899841180198346 11.325223711380373 21.277350924367532 -2 0 0
1084 91 4 0.18 2.4893901312201097 11.229937557792015 21.049902125879537 -2 0 0
2625 219 9 0.115 4.794307486768274 5.284412102291847 24.702295479914792 2 2 -2
5508 459 12 0.115 5.678098170436268 11.006657775001882 32.567426037749506 0 -1 2
3739 312 7 -0.18 4.343815124731523 3.165216444252126 32.37306964365175 -3 2 0
5140 429 4 0.18 3.9004650343256335 6.539515753916622 29.69096494024599 1 0 0
4264 356 4 0.18 1.7289844192737833 0.7218652793615356 29.44238155231362 -1 3 0
5145 429 9 0.115 2.3407106158893405 6.8135281826050536 26.652431510795914 1 0 0
3883 324 7 -0.18 1.9807072082809334 11.263527149177333 25.81946156463793 2 1 1
2621 219 5 -0.115 4.554653731377922 9.114893293420092 23.83441019580834 2 2 -2
4078 340 10 0.115 0.552437353993721 5.183205934252921 22.79069407430953 0 1 1
2624 219 8 0.115 2.9155123112816685 6.16095278043468 23.330616698833236 2 2 -2
5137 429 1 -0.115 1.5028951130387107 5.737614045459629 28.424738281558074 1 0 0
5143 429 7 -0.18 5.292664639010918 7.098390260049449 30.40845683122521 1 0 0
5148 429 12 0.115 0.9567282480292221 4.9826971116617225 30.31566156592073 1 0 0
5272 440 4 0.18 1.1487591287813923 8.385746458765164 31.92257340245104 2 2 -1
4195 350 7 -0.18 3.675567189596073 2.5938638239545626 25.952263950125804 1 -2 2
4077 340 9 0.115 2.3392520406178337 3.8869296246403016 23.891575164118493 0 1 1
5146 429 10 0.115 4.449059287595018 7.315490539131661 27.737334035781284 1 0 0
2620 219 4 0.18 5.601825752087649 8.673973713883504 24.6390261572355 2 2 -2
4263 356 3 -0.115 1.9645073573863416 0.4577294154807415 30.84088841121034 -1 3 0
2619 219 3 -0.115 5.657688665160915 7.325101602207972 25.005265771913106 2 2 -2
2627 219 11 0.115 4.560183845287753 10.188130773268675 23.589009269308804 2 2 -2
2622 219 6 -0.115 3.524756083889444 8.259094157250209 23.43051700937801 2 2 -2
5141 429 5 -0.115 2.9848284847749524 5.7099922912622025 30.388492814410775 1 0 0
5138 429 2 -0.115 2.432656810014988 6.443809226285003 27.70023948605226 1 0 0
5139 429 3 -0.115 3.680879969604691 6.859993334084697 28.323676541074256 1 0 0
5498 459 2 -0.115 5.3300141644050605 11.038607126077677 29.101465640036835 0 -1 2
5144 429 8 0.115 0.5523649594440985 5.397084255166552 28.008845221975193 1 0 0
5147 429 11 0.115 3.0938525461508877 5.443634765177069 31.453527142179418 1 0 0
3736 312 4 0.18 5.135025385391679 1.7610283851719764 32.943742665256806 -3 2 0
2628 219 12 0.115 2.5745176777099013 8.604926006357797 22.963262791858803 2 2 -2
3981 332 9 0.115 5.775740617040739 0.5192953751823051 24.29521513007194 0 -1 -2
2618 219 2 -0.115 4.723093034434691 6.372660621605966 24.45211873427783 2 2 -2
3743 312 11 0.115 5.5770303253455005 1.2369093473721233 30.947242078061997 -3 2 0
5142 429 6 -0.115 1.755667109789629 5.408108108183068 29.75092655403086 1 0 0
4198 350 10 0.115 4.377468336134643 3.0542932019610065 28.747458486943497 1 -2 2
5278 440 10 0.115 3.1723775997865444 8.017750717276286 32.5487579344124 2 2 -1
4192 350 4 0.18 5.120871279841151 3.0782335263107625 26.722123116525264 1 -2 2
5271 440 3 -0.115 2.1161860153673526 7.7753461014901974 32.66195730615027 2 2 -1
2617 219 1 -0.115 3.633764123618866 6.859215836323455 23.661177598596176 2 2 -2
3737 312 5 -0.115 5.591904972672619 0.8597509880767451 31.952161182592885 -3 2 0
4191 350 3 -0.115 5.226544735396685 3.2915864912441126 28.156253420746566 1 -2 2
5497 459 1 -0.115 4.972224043396372 10.994662976911158 30.48896592626541 0 -1 2
5275 440 7 -0.18 1.5177382472436316 9.683192959948395 30.862250671372397 2 2 -1
4070 340 2 -0.115 1.9721413255910145 3.6219577952160593 22.84588908643195 0 1 1
5504 459 8 0.115 3.9839114913118716 10.671238848317547 30.79202241265986 0 -1 2
5505 459 9 0.115 4.625356140012903 10.846981721029403 28.292015329424174 0 -1 2
4267 356 7 -0.18 0.5797012555901846 1.8811076056661797 28.99705796935918 -1 3 0
4270 356 10 0.115 1.5845194834999992 1.2547665712096001 31.564153369303597 -1 3 0
611 51 11 0.115 3.33514091508437 10.44122921228782 32.93105676297661 2 -2 -1
2291 191 11 0.115 0.3470584977214344 7.939582798810874 25.746943248354498 1 1 0
4076 340 8 0.115 3.3117557089311522 1.944269570820566 22.514841655198182 0 1 1
5846 488 2 -0.115 1.6874135909927332 9.950831103075053 41.81247926377177 2 2 1
2764 231 4 0.18 5.794900317349407 6.025229002251064 37.140637324668766 1 2 1
2783 232 11 0.115 2.580813754667862 6.218928381652158 39.366869142412426 0 1 1
2696 225 8 0.115 0.341713231088736 3.549235625109518 33.60977861613242 1 0 1
3398 284 2 -0.115 1.7105090793361408 1.1500664658060586 36.076136084315095 0 -1 0
2775 232 3 -0.115 4.359852927156263 5.675934817683261 42.18204833245831 0 1 1
5847 488 3 -0.115 2.4076782797303675 10.855550542282593 40.96813183941003 2 2 1
3742 312 10 0.115 4.809167113450892 2.08624832439156 35.08375642216916 -3 2 0
610 51 10 0.115 3.539644447698465 9.947153667681135 37.2147187143726 2 -2 -1
3406 284 10 0.115 2.6092002096869136 3.1809348518766374 36.27856256753786 0 -1 0
4631 386 11 0.115 4.265213743199053 10.766867222536632 43.44368839627831 1 0 0
5854 488 10 0.115 3.4870341106978686 10.727996369000104 40.865490069823224 2 2 1
3399 284 3 -0.115 1.8390083676125222 2.4268827112242044 36.618629356108485 0 -1 0
5277 440 9 0.115 2.453225386828234 6.420202440062952 34.29559130963012 2 2 -1
2782 232 10 0.115 4.466103386415034 4.978953991306867 42.982450974196645 0 1 1
603 51 3 -0.115 2.9234631115119534 10.246942642095696 36.33235253234241 2 -2 -1
2773 232 1 -0.115 5.342727514843618 7.569256764490806 41.081229951900795 0 1 1
2779 232 7 -0.18 2.2748926821823936 4.156549619431495 41.1300260561536 0 1 1
2776 232 4 0.18 3.466469531174438 5.450807659579623 41.143782688617634 0 1 1
2784 232 12 0.115 4.296059715385258 8.016752718151993 39.17153234627164 0 1 1
607 51 7 -0.18 4.808092001928734 9.017461905830476 34.82627403647301 2 -2 -1
2774 232 2 -0.115 5.313269722842629 6.729330432174053 42.20794580192865 0 1 1
5460 455 12 0.115 2.772533866772597 6.129598090612513 44.47269124997604 -1 -2 -2
2777 232 5 -0.115 3.386139733741821 6.362611900237915 40.1367327430059 0 1 1
602 51 2 -0.115 1.7903224257215868 11.029741757776698 36.45676469120644 2 -2 -1
604 51 4 0.18 3.4254862392238703 10.093403800294231 35.04458264488779 2 -2 -1
3405 284 9 0.115 2.389774564329677 0.8405052612458148 35.31652496455767 0 -1 0
3403 284 7 -0.18 0.683110756250934 4.582870174041108 37.984024449933706 0 -1 0
605 51 5 -0.115 2.8708198905479554 10.605876071608163 33.87091180121432 2 -2 -1
2778 232 6 -0.115 4.319731261325616 7.408665784408835 40.06088240850433 0 1 1
3735 312 3 -0.115 5.183826973612961 1.377709927751787 34.27218131638487 -3 2 0
5853 488 9 0.115 2.208412342095754 9.211082596815553 42.267785361996445 2 2 1
2767 231 7 -0.18 4.176922439088667 6.180683102778915 36.670357789357645 1 2 1
3400 284 4 0.18 0.8392138198469632 2.9592408606580185 37.51166958376778 0 -1 0
609 51 9 0.115 1.3898292072204863 11.213619709172637 37.458846169517365 2 -2 -1
5611 468 7 -0.18 4.355256913515828 1.9291012386686253 39.6239616651069 -1 -3 -2
5270 440 2 -0.115 1.702570438303424 6.946359925129159 33.67780591036941 2 2 -1
2886 241 6 -0.115 3.9460820600873876 1.623969082717331 44.27823681419568 1 0 -1
2892 241 12 0.115 2.8634374414253347 1.712819752405601 44.04588014531555 1 0 -1
3397 284 1 -0.115 0.6776033159065765 0.3593018427062326 36.55066998298215 0 -1 0
2770 231 10 0.115 5.736827117615245 3.8253016845136987 37.4717766282483 1 2 1
5614 468 10 0.115 5.815867976088921 4.3978382765305115 40.290306507487855 -1 -3 -2
606 51 6 -0.115 1.6747994264930428 11.387071966385703 34.05059626924223 2 -2 -1
2885 241 5 -0.115 4.674610937280515 2.755823674507136 44.62315570234147 1 0 -1
5269 440 1 -0.115 0.34209944855603425 6.572527329359139 33.96334330630044 2 2 -1
2881 241 1 -0.115 4.5429738676293745 0.3414234317810525 44.168131237546056 1 0 -1
3203 267 11 0.115 5.227867904489844 14.627473730439362 7.685650536102282 -1 -2 1
533 45 5 -0.115 0.985742968150675 15.571239451451339 9.445503908479703 1 3 1
3393 283 9 0.115 0.5126157474262976 18.373121467563195 5.1129041004045845 2 2 -1
3417 285 9 0.115 1.3610482048574555 22.162047561095424 4.61012890969832 1 -3 0
3387 283 3 -0.115 1.1598700949576681 16.8698925801142 3.712680312277928 2 2 -1
539 45 11 0.115 1.7327075123569535 14.838392718356875 9.117440346737013 1 3 1
3419 285 11 0.115 0.6789754532603246 18.815462146430985 8.230136627065356 1 -3 0
4232 353 8 0.115 2.7408792217361895 21.111934612533943 9.751783035976143 2 0 -1
4230 353 6 -0.115 3.0287897905603365 19.40783709915157 10.99098308628729 2 0 -1
3413 285 5 -0.115 0.7820083537877243 19.57543569320448 7.437310997066245 1 -3 0
375 32 3 -0.115 4.291869155394766 13.982764677617745 4.513279369418563 0 1 -1
3196 267 4 0.18 4.9894527593938065 16.71757316602595 7.745790598885988 -1 -2 1
4059 339 3 -0.115 2.227271680182575 19.313103427903833 1.4893640439165372 0 0 1
3394 283 10 0.115 2.2036829759321996 16.72160199613988 4.052890141969728 2 2 -1
3391 283 7 -0.18 1.6630714466945633 14.855196525501363 1.8426692640978446 2 2 -1
3197 267 5 -0.115 5.698254244290717 15.541986317572656 7.9921133059225244 -1 -2 1
3416 285 8 0.115 3.3207853700676244 21.04414502361246 5.533610330668849 1 -3 0
3420 285 12 0.115 2.917887301556625 19.345703132370037 7.286269182969775 1 -3 0
3195 267 3 -0.115 5.629859513950274 17.930191852019004 8.009456984605947 -1 -2 1
4060 339 4 0.18 3.5806964666404975 19.755375769465477 1.369983070876622 0 0 1
3388 283 4 0.18 0.6757946003536892 15.981371877095977 2.717732626318371 2 2 -1
532 45 4 0.18 0.9796992674769 16.184386315404858 10.727838764730278 1 3 1
4066 339 10 0.115 1.6266947727066494 19.502309800042106 2.3420354967846473 0 0 1
3410 285 2 -0.115 1.1864221933577217 21.43730238250522 5.365083718864086 1 -3 0
382 32 10 0.115 3.620078484413042 14.855513574904407 4.2736757739292415 0 1 -1
4236 353 12 0.115 2.7634033886182627 18.586296033257263 10.248842223179201 2 0 -1
3414 285 6 -0.115 2.068936073727367 19.85133358476841 6.883224354874927 1 -3 0
4063 339 7 -0.18 4.384455949240274 20.65393736400037 2.627436249122085 0 0 1
3202 267 10 0.115 5.033746219857533 18.848192363532238 7.9574105146008804 -1 -2 1
4225 353 1 -0.115 2.976158340585809 20.757928239683668 10.722762267701007 2 0 -1
376 32 4 0.18 4.127672763994943 13.084097782263996 5.581468481846786 0 1 -1
1159 97 7 -0.18 5.449082107773471 12.366953960089868 10.310615240075467 0 -1 -2
379 32 7 -0.18 2.7923569594181377 13.405875818490411 6.7068354182782155 0 1 -1
1163 97 11 0.115 2.9559694365423286 13.277619532864968 10.861300256707587 0 -1 -2
3199 267 7 -0.18 3.3685067047057973 16.669330410604573 6.986911875752709 -1 -2 1
374 32 2 -0.115 5.284757047042479 13.761497105223546 3.5410055790207022 0 1 -1
3409 285 1 -0.115 2.308786533321425 20.807672675870172 5.93659437915223 1 -3 0
377 32 5 -0.115 5.017632006541951 11.980239984294583 5.690603046918104 0 1 -1
381 32 9 0.115 5.3105537396973945 14.352074532385325 2.609699046433754 0 1 -1
4058 339 2 -0.115 1.6340501186476388 18.507655331693673 0.46931272347770137 0 0 1
4065 339 9 0.115 0.6427648047799105 18.18451474906775 0.5597296622707287 0 0 1
5984 499 8 0.115 0.7308352898987409 11.435110861353271 8.333584497174273 1 3 0
1157 97 5 -0.115 3.1409260001549684 12.619142552814052 11.692693834727654 0 -1 -2
1989 166 9 0.115 4.91180339987455 16.410666151964826 18.421549897281466 1 0 3
4229 353 5 -0.115 3.4227875574406945 18.873436152181885 12.28341586563256 2 0 -1
1986 166 6 -0.115 3.2597649769467827 13.416573462043132 17.71642721866473 1 0 3
4227 353 3 -0.115 3.8035233444040637 21.24161461794885 12.951715633527563 2 0 -1
1090 91 10 0.115 0.7302097267158532 12.007210837892679 22.008823925807206 -2 0 0
2962 247 10 0.115 5.538513074904875 16.998210969592744 11.492330188385392 3 3 1
1407 118 3 -0.115 1.0670948833614895 17.69566035690634 17.51408735752216 -1 -1 -2
1988 166 8 0.115 2.7236984681292897 15.312390502754571 18.82840508774824 1 0 3
1991 166 11 0.115 4.129025565358052 11.764339478794964 16.697404945920567 1 0 3
5833 487 1 -0.115 4.113369645787578 17.98451979803005 21.47757534610134 0 1 1
3894 325 6 -0.115 3.675077202373146 21.721386185759343 18.279014697596665 0 3 2
4235 353 11 0.115 3.2591191342440062 17.87289868866757 12.473499958824844 2 0 -1
4231 353 7 -0.18 4.1531575975949035 19.25225986843097 14.834805844965857 2 0 -1
1413 118 9 0.115 2.983502035601258 17.048605910304925 16.82182221105459 -1 -1 -2
2959 247 7 -0.18 4.993959403806133 15.038943555494555 13.443442952623027 3 3 1
4234 353 10 0.115 4.210497800930344 21.838720504518246 13.721312841904538 2 0 -1
5840 487 8 0.115 5.0596843201147825 18.38151851986504 21.280674945739346 0 1 1
3890 325 2 -0.115 1.3689881649792206 21.114176720840526 18.23453361421213 0 3 2
1984 166 4 0.18 5.497205273714412 13.391529581060048 16.866871568280732 1 0 3
1992 166 12 0.115 2.3738989516127513 12.852143972652536 18.0093595293235 1 0 3
1982 166 2 -0.115 4.641798791524576 15.403357923700034 17.99705576501452 1 0 3
1406 118 2 -0.115 1.9330118781636276 17.123085932514826 16.594315746729958 -1 -1 -2
5837 487 5 -0.115 1.812189345858633 18.63301877292368 22.12282153576646 0 1 1
4228 353 4 0.18 3.839281072500116 19.83246059312254 13.252347570405414 2 0 -1
5844 487 12 0.115 3.4579014256475906 20.029673735359907 21.65941902313177 0 1 1
1414 118 10 0.115 1.4539742729782652 18.022566981157546 18.419087753427704 -1 -1 -2
1981 166 1 -0.115 3.432660811737583 14.785819961983751 18.230903903073724 1 0 3
5836 487 4 0.18 1.4079679645115848 17.271384725146476 22.22837926376994 0 1 1
1809 151 9 0.115 0.5553694910822542 21.09903958875087 15.716584285223341 0 -2 1
1412 118 8 0.115 1.9780167744785035 16.185072658359 14.625628137066261 -1 -1 -2
3889 325 1 -0.115 2.687222854627442 20.849528845178988 17.83967873529025 0 3 2
3896 325 8 0.115 2.897666668865279 19.858265627487707 17.383938439802048 0 3 2
3897 325 9 0.115 0.6875764238896678 20.331173201590875 17.965452692957378 0 3 2
3900 325 12 0.115 4.697943454201746 21.455465679491006 18.010452244678877 0 3 2
1985 166 5 -0.115 4.280217200060473 12.692413204485517 17.156064453104165 1 0 3
5838 487 6 -0.115 3.1492531489739504 18.949640578468408 21.76498022009948 0 1 1
5835 487 3 -0.115 2.358791240092561 16.359613998335483 21.823029280335923 0 1 1
1983 166 3 -0.115 5.657931167797572 14.743651056922577 17.244493607317406 1 0 3
3891 325 3 -0.115 0.9998986084010594 22.314975790214316 18.924476825371283 0 3 2
934 78 10 0.115 0.8447855856162662 15.075158917255537 17.708295258950905 2 0 0
1087 91 7 -0.18 3.4435812319925323 12.25085402117157 21.988653034400386 -2 0 0
1405 118 1 -0.115 1.3621179497168376 16.585068419597444 15.408630714457098 -1 -1 -2
4226 353 2 -0.115 3.3144456510590556 21.69023478050883 11.709772907922845 2 0 -1
535 45 7 -0.18 2.274890981162714 15.744537339831217 11.844605578772537 1 3 1
5834 487 2 -0.115 3.7585860853723148 16.630842247012346 21.568052479842905 0 1 1
5841 487 9 0.115 4.489456835269288 15.901259168074656 21.224151330710338 0 1 1
1810 151 10 0.115 1.1839830163018783 21.675219825243445 13.270242906355891 0 -2 1
1158 97 6 -0.115 2.201381141777763 12.311868367003713 12.737193555392228 0 -1 -2
5842 487 10 0.115 2.124210362757569 15.316841672874355 21.83211545724186 0 1 1
1156 97 4 0.18 4.376392992923564 11.980750583670245 11.654468449989155 0 -1 -2
1164 97 12 0.115 1.2296838503744785 12.728939044076279 12.894671068246321 0 -1 -2
5494 458 10 0.115 0.46004809935464586 22.267350318497627 22.47384236602656 -2 1 1
5843 487 11 0.115 1.1117831231110171 19.41473647413667 22.255256561081627 0 1 1
4166 348 2 -0.115 5.338158159127983 22.226564598846153 23.21904154320522 1 -3 0
3888 324 12 0.115 0.5370509681606441 15.811903703361617 25.05370235803675 2 1 1
3916 327 4 0.18 0.9724348242572176 19.88277100064953 28.764019978375057 0 -2 1
3879 324 3 -0.115 0.7024644145261025 12.887643190964367 27.631445938196197 2 1 1
612 51 12 0.115 1.0658183960107381 11.784698099232585 33.24023799391187 2 -2 -1
4966 414 10 0.115 0.719158703425911 16.22004296414034 30.933997107696666 2 0 2
3886 324 10 0.115 0.7743793375542385 12.013332411299466 28.230360877981813 2 1 1
3922 327 10 0.115 2.397411535400647 19.320383282910665 27.21803609010246 0 -2 1
3919 327 7 -0.18 2.188720962704279 20.374220377957414 29.860270795802904 0 -2 1
3921 327 9 0.115 0.5783485394125181 18.84891547037501 25.56374680735642 0 -2 1
4027 336 7 -0.18 5.339882508159542 21.65226582646531 26.994525723608156 0 1 2
1576 132 4 0.18 3.7807451827091176 15.649591690161017 29.307604687688983 1 1 1
4666 389 10 0.115 3.28590065555914 16.61563765823137 32.7936830415881 0 -4 0
141 12 9 0.115 5.065619619002711 20.958921534742306 32.28207867459881 2 0 -1
4963 414 7 -0.18 0.43367424466800664 18.756411859366487 32.27294285599058 2 0 2
1583 132 11 0.115 3.708406659940597 17.542281309424535 30.32293347898454 1 1 1
1574 132 2 -0.115 4.1843734570191256 15.841794640841274 26.950657800158197 1 1 1
1582 132 10 0.115 3.737412045016243 13.888473297022829 28.1141094953626 1 1 1
1575 132 3 -0.115 3.9122402446697864 15.000413181009389 28.069944981485424 1 1 1
1584 132 12 0.115 4.3851683578987295 18.88718139292379 28.17318536960447 1 1 1
3880 324 4 0.18 1.3135333661640418 12.779193120267507 26.317648174776732 2 1 1
3882 324 6 -0.115 0.5729287343650862 15.005261870443654 25.78994797339852 2 1 1
1579 132 7 -0.18 3.437136608820316 14.671085200447864 30.722337955032362 1 1 1
1578 132 6 -0.115 4.227255319560056 17.84260497984633 28.25952501038044 1 1 1
1573 132 1 -0.115 4.465778224830699 17.227425932453226 27.013313275605135 1 1 1
3881 324 5 -0.115 1.1761806163705817 13.807962125723693 25.349078863511306 2 1 1
4173 348 9 0.115 5.334095998280756 21.152745934228676 22.893662419065826 1 -3 0
3887 324 11 0.115 1.6051373309557684 13.867411605071204 24.323089347312088 2 1 1
3915 327 3 -0.115 1.3748997049211915 19.458597116512536 27.430126818146327 0 -2 1
5493 458 9 0.115 0.9378967495550583 21.111152256132442 24.621184651768008 -2 1 1
1581 132 9 0.115 4.121102540265923 15.441006604288201 25.943896249654138 1 1 1
1580 132 8 0.115 4.53492809431276 17.847802583777465 26.094008511663993 1 1 1
1577 132 5 -0.115 3.8990365664057687 17.068515474124265 29.41252537411658 1 1 1
3914 327 2 -0.115 0.34222890347589185 19.130155007350215 26.549831723667705 0 -2 1
4621 386 1 -0.115 5.626344425774823 13.779135950225129 44.1015333159081 1 0 0
777 65 9 0.115 4.93778628757081 13.140096722389389 35.31041701809086 2 0 -2
5692 475 4 0.18 5.386731584569976 16.026255442411525 40.013391335733104 1 -1 0
4625 386 5 -0.115 5.0596834707069815 11.484043362472852 43.74302866669197 1 0 0
2610 218 6 -0.115 3.8538326709268134 19.921706513644697 40.25591212634544 0 0 2
2070 173 6 -0.115 0.35957256591747744 17.64214786771916 38.84351461676971 2 -1 -1
5699 475 11 0.115 5.405038887313507 17.91190589369641 38.952406123682664 1 -1 0
4659 389 3 -0.115 3.334555913004673 16.430813154750155 33.85084105911352 0 -4 0
5118 427 6 -0.115 1.4873987519853045 21.61609117226789 42.29534361008283 -1 2 0
4657 389 1 -0.115 2.898955465503737 14.866893440112632 35.7699133370349 0 -4 0
4665 389 9 0.115 2.4418106722983888 14.4108670454242 33.707059590706265 0 -4 0
4664 389 8 0.115 2.5423442182565976 13.90877136969658 36.20671715006513 0 -4 0
4628 386 8 0.115 5.295497240259149 14.77044414343135 44.336302343806565 1 0 0
2605 218 1 -0.115 5.211119950637616 20.1771232686454 40.51654876042312 0 0 2
4061 339 5 -0.115 4.3611907590015475 19.259934246857835 44.604932806333416 0 0 0
4667 389 11 0.115 4.282600018875466 17.785412973399612 36.92423605723894 0 -4 0
4660 389 4 0.18 3.830886317915357 17.325761666547915 34.86191416337838 0 -4 0
5695 475 7 -0.18 3.7805843486047084 16.238635162688816 40.55650719502186 1 -1 0
4661 389 5 -0.115 3.806849595679028 17.01337701465659 36.268411305241635 0 -4 0
2607 218 3 -0.115 5.516236145489525 21.04815236940987 38.22025135106732 0 0 2
2076 173 12 0.115 1.2337370363897493 16.983554002724578 38.61866375085009 2 -1 -1
2611 218 7 -0.18 3.407730321766561 21.050921366207128 36.5031200186268 0 0 2
601 51 1 -0.115 1.2297916588751883 11.70531393230596 35.386335992915015 2 -2 -1
5851 488 7 -0.18 2.572940201257965 13.116371010042718 39.42268662347549 2 2 1
5124 427 12 0.115 0.8326708598071697 20.850437849079906 42.659877119389954 -1 2 0
2608 218 4 0.18 4.128773636962057 20.74736240053583 37.98975393405959 0 0 2
5113 427 1 -0.115 2.679711501949178 21.88930381326503 42.99494819164693 -1 2 0
4626 386 6 -0.115 4.671692777332337 12.822122079943476 43.80240802050111 1 0 0
4064 339 8 0.115 1.929962493555064 17.380905842278132 42.90478544346589 0 0 0
4632 386 12 0.115 3.635482276318125 13.224144306219998 43.77015354209706 1 0 0
5848 488 4 0.18 1.7637395596810332 11.918809249454048 40.38341815543434 2 2 1
4662 389 6 -0.115 3.420471202020134 15.737483269816199 36.71333130111501 0 -4 0
5117 427 5 -0.115 1.1017097058358607 22.40421754063531 41.16749942600215 -1 2 0
4057 339 1 -0.115 2.3877941004294003 18.077305612939256 43.68295613960798 0 0 0
2612 218 8 0.115 5.626318030361871 19.947155753486033 41.530698676604835 0 0 2
4068 339 12 0.115 4.393895651475692 18.029912015141814 42.86136854718437 0 0 0
2616 218 12 0.115 3.330807725266057 19.463634997867626 41.03891562582545 0 0 2
2615 218 11 0.115 2.1999218359189223 20.055418477876177 38.81275932579795 0 0 2
4062 339 6 -0.115 3.813782113097289 18.399699709191452 43.64948218177214 0 0 0