LAMMPS data file via write_data, version 29 Aug 2024, timestep = 1000000, units = real

5000 atoms
5 atom types
4000 bonds
4 bond types
4000 angles
4 angle types
2000 dihedrals
2 dihedral types
1000 impropers
1 improper types

3.6452549810472377 44.4360350189386 xlo xhi
4.57940997103189 43.006890028953194 ylo yhi
2.662356069529185 42.719083930475705 zlo zhi

Masses

1 12.011
2 15.999
3 15.999
4 1.008
5 1.008

Pair Coeffs # lj/cut/coul/long

1 0.105 3.75
2 0.21 2.96
3 0.17 3
4 0.015 2.42
5 0 0

Bond Coeffs # harmonic

1 570 1.229
2 450 1.364
3 340 1.09
4 553 0.945

Angle Coeffs # harmonic

1 80 121
2 35 123
3 35 113
4 40 115

Dihedral Coeffs # opls

1 0 5.5 0 0
2 1.5 5.5 0 0

Improper Coeffs # cvff

1 10.5 -1 2

Atoms # full

1346 270 1 0.52 5.954573794637291 6.889369770325605 6.965723059367064 1 2 0
4217 844 2 -0.44 6.713396431860961 4.59909570391374 11.659118287304942 1 2 1
4218 844 3 -0.53 5.988983916807629 6.432772881099328 10.566764215167112 1 2 1
502 101 2 -0.44 4.806637476012181 9.206932379686663 8.777923698878876 0 0 0
2389 478 4 0 8.004946970718628 6.61095016706627 9.055811474855828 0 -1 0
1348 270 3 -0.53 5.363611756059141 5.678572308167979 7.137642924221165 1 2 0
912 183 2 -0.44 5.8299108230675145 10.03467886620463 5.974758622153131 -2 4 0
2386 478 1 0.52 8.950887182672558 6.346027441697823 9.44099584280119 0 -1 0
2387 478 2 -0.44 9.975644379342294 6.444717988581996 8.773960292494227 0 -1 0
2366 474 1 0.52 9.06136876036474 9.278079637159404 7.40488725804605 1 1 -1
2367 474 2 -0.44 9.87489772452348 10.163735612291276 7.606466914014274 1 1 -1
2369 474 4 0 8.352204021486045 8.857277329319597 8.110302199419102 1 1 -1
2827 566 2 -0.44 12.065558523869381 7.93438951539819 6.237023485496318 -1 1 -1
2368 474 3 -0.53 8.975083277430272 8.788059018592467 6.160804196045563 1 1 -1
2826 566 1 0.52 11.76140378832181 7.894556804999577 5.053485474648563 -1 1 -1
2370 474 5 0.45 8.346486286909442 8.05879983238668 6.202755183203407 1 1 -1
2828 566 3 -0.53 12.423012387101963 8.653935905062816 4.1180330485165895 -1 1 -1
2829 566 4 0 11.173621196401012 7.156948150677732 4.596834550599733 -1 1 -1
4216 844 1 0.52 5.708433500498539 5.264401645095427 11.261028552792116 1 2 1
1347 270 2 -0.44 7.0783694323836475 6.955410826758822 6.4773416490873945 1 2 0
1349 270 4 0 5.285290616256805 7.701604458348273 7.152304804830521 1 2 0
2830 566 5 0.45 12.041898175875044 8.432715598292823 3.243081881768041 -1 1 -1
3764 753 4 0 13.366487120814567 9.752686554966907 8.817238426555207 1 0 0
4694 939 4 0 7.486940420935021 10.35616081678102 3.78627905297356 3 2 2
1350 270 5 0.45 4.517910751630343 5.885784041478217 7.496055394661118 1 2 0
4219 844 4 0 4.660642582144243 5.156377783511599 11.58894011733802 1 2 1
4985 997 5 0.45 12.11815015255624 6.015530297794875 7.262979610202189 1 -1 1
4983 997 3 -0.53 12.705622659968123 5.341240642577952 7.632015426390176 1 -1 1
4220 844 5 0.45 5.252434833609951 7.053167179652526 10.59556039429036 1 2 1
1878 376 3 -0.53 4.040182879940959 7.697266226934232 3.6713722921897824 2 1 0
4000 800 5 0.45 11.263187068801317 6.751169274265608 10.599915765537087 -1 0 1
2352 471 2 -0.44 9.233894257659776 8.8920933253528 11.686876289144495 1 0 1
3998 800 3 -0.53 12.188744868348103 6.721840630709043 10.954278916458492 -1 0 1
3996 800 1 0.52 12.235777401304599 5.675564178272504 11.809238157221394 -1 0 1
1876 376 1 0.52 3.6747809487148486 6.8380884755627305 2.703367966621698 2 1 0
4848 970 3 -0.53 11.583711549608518 10.501563117430061 10.756675355152174 1 2 -1
2351 471 1 0.52 8.175866615073414 9.197044446663597 12.387805838647363 1 0 1
2354 471 4 0 7.274373086686893 8.627337207235662 12.2675039823709 1 0 1
4850 970 5 0.45 10.713030624953156 10.311689740401226 11.014939834819037 1 2 -1
4691 939 1 0.52 8.468744111102733 10.248294426991784 3.3004697858390046 3 2 2
2390 478 5 0.45 8.064873034840362 5.881345538288542 11.084990767131043 0 -1 0
2388 478 3 -0.53 8.95548074171543 5.9035798564603645 10.702822178675964 0 -1 0
3761 753 1 0.52 13.532488110688002 10.478866533841158 8.085918738085024 1 0 0
3765 753 5 0.45 12.601284158970637 9.409449672413963 6.767315051661846 1 0 0
3763 753 3 -0.53 13.004618298946461 10.296867638467074 6.8653332857502605 1 0 0
3999 800 4 0 11.247491389709706 5.149615105443781 11.94758239012968 -1 0 1
4205 841 5 0.45 9.025909125735874 4.830555697742287 6.2801100485989565 1 -1 1
3997 800 2 -0.44 13.304594628119851 5.102496835846803 12.084544332369763 -1 0 1
4203 841 3 -0.53 9.680168464263396 5.073743776406733 5.665281522933473 1 -1 1
3565 713 5 0.45 6.053818703758001 10.873570264267704 8.28182366258825 1 0 1
4201 841 1 0.52 9.090101315892518 5.051329214369432 4.416102627041073 1 -1 1
503 101 3 -0.53 3.8655414269945423 7.9426610776364 10.372443270569097 0 0 0
4202 841 2 -0.44 9.768972052438855 5.0876988020136915 3.4044553904358485 1 -1 1
4204 841 4 0 8.039037395295395 4.715176252000009 4.496688134754354 1 -1 1
2195 439 5 0.45 13.677328062221926 7.610239782015178 10.76770620122969 1 0 0
501 101 1 0.52 3.8226484679213515 9.041886357836464 9.526104112669678 0 0 0
911 183 1 0.52 5.184415157874093 11.051478725538786 5.741667749389229 -2 4 0
3613 723 3 -0.53 9.85748009127202 13.878983216321394 2.6929069415519504 3 1 1
1997 400 2 -0.44 7.345321519287053 16.682164542796897 9.737855236361602 -1 1 1
1753 351 3 -0.53 11.050862931985398 12.341780135644537 7.123934047883882 1 0 0
2000 400 5 0.45 4.57689190132048 15.60743172469222 10.296537342708739 -1 1 1
3480 696 5 0.45 8.94280991709163 13.846851133671024 10.483037407828249 1 0 0
4562 913 2 -0.44 13.286706028940785 13.00124876002947 3.7530596489055563 0 0 2
3129 626 4 0 13.078976458419762 14.809713836549909 7.424954346640077 0 1 1
3981 797 1 0.52 11.170074793007903 17.262828248347034 5.7434814333782445 0 -2 1
914 183 4 0 4.107196693161221 11.140753244056086 5.9815739668784165 -2 4 0
2958 592 3 -0.53 12.322387555016423 16.99514205759997 9.303929586274695 1 1 0
1883 377 3 -0.53 10.902218693393632 16.2986543859482 12.138029541036438 1 -1 0
913 183 3 -0.53 5.832217719378981 12.190211894866751 5.261721838731031 -2 4 0
4846 970 1 0.52 12.036589984070465 11.28548405277284 11.783933427294528 1 2 -1
2960 592 5 0.45 12.042589823518357 16.207962206771484 9.749055052614475 1 1 0
3564 713 4 0 5.830621886248402 11.671641840204003 10.232603862869478 1 0 1
4382 877 2 -0.44 7.5169790544143 16.112391040907088 5.355970724329131 1 -3 1
4847 970 2 -0.44 13.242312881320542 11.543763844095743 11.808146785628473 1 2 -1
1885 377 5 0.45 10.52878648107918 15.482724986115425 11.74309770845215 1 -1 0
1998 400 3 -0.53 5.215858895051966 16.12285388470843 9.774767875035634 -1 1 1
1881 377 1 0.52 10.029840903747964 17.311794989065568 12.230243597685233 1 -1 0
915 183 5 0.45 5.256884870682917 12.945909126660135 5.1465457027657155 -2 4 0
4385 877 5 0.45 7.563807530094866 17.01805885139705 8.125887536777714 1 -3 1
4381 877 1 0.52 7.2669436397029425 16.22109963891445 6.539694156652224 1 -3 1
1999 400 4 0 6.62183253667024 15.147611827710222 10.844954045614125 -1 1 1
3615 723 5 0.45 9.18425067261264 13.307351371412453 3.130124713767942 3 1 1
62 13 2 -0.44 4.03646515145034 13.827850289848458 4.5773583327669245 1 1 1
3563 713 3 -0.53 6.830628957474343 11.386351146291384 8.434327486697429 1 0 1
1996 400 1 0.52 6.44415127581194 15.949273849092052 10.185398558754265 -1 1 1
3217 644 2 -0.44 4.734011493655536 13.749612761731605 11.582868657794966 1 -2 0
3479 696 4 0 10.38995469863422 12.863986221675928 9.529192712374286 1 0 0
3476 696 1 0.52 10.694247515593727 13.873333967908847 9.818800069647033 1 0 0
4384 877 4 0 6.698418546898928 15.47393261321383 7.0907036102253125 1 -3 1
1755 351 5 0.45 10.60293952668195 11.545800028390998 7.413641911516446 1 0 0
3983 797 3 -0.53 11.729666780558851 16.310285965624416 5.016987982217447 0 -2 1
4383 877 3 -0.53 7.739735295497934 17.27303002858671 7.252386454585183 1 -3 1
1884 377 4 0 9.038845340340306 17.03255075753456 11.951798211977817 1 -1 0
3478 696 3 -0.53 9.69753020925246 14.437539753609641 10.514491709841101 1 0 0
1754 351 4 0 9.244530972883137 12.636426516172506 6.163245036934795 1 0 0
1751 351 1 0.52 10.22733519027563 13.104476960016274 6.419148059783937 1 0 0
1752 351 2 -0.44 10.586991602575935 14.204082104804806 5.946956639579007 1 0 0
3477 696 2 -0.44 11.719645833255365 14.485068733654304 9.68274113454399 1 0 0
3985 797 5 0.45 11.407472322383768 15.442499707234518 5.242216146488743 0 -2 1
3561 713 1 0.52 6.665912587472958 11.943601338532964 9.626145014146063 1 0 1
3984 797 4 0 10.71347738989869 17.023078008177524 6.723783383465831 0 -2 1
3562 713 2 -0.44 7.585601238716828 12.651820559431128 10.025041762589968 1 0 1
4692 939 2 -0.44 9.365240299847764 11.145308099124506 3.4040300051425807 3 2 2
2959 592 4 0 13.667344223589579 16.741237487468265 10.83643533949685 1 1 0
4849 970 4 0 11.365078003379406 11.461825886903565 12.671015962002954 1 2 -1
3614 723 4 0 8.254667437097918 15.228683490519122 3.0134031330343873 3 1 1
2956 592 1 0.52 13.456285537638992 17.357622064620536 9.972858095227409 1 1 0
4276 856 1 0.52 4.326690948778498 17.372360257727756 3.612993511135809 0 -1 0
4468 894 3 -0.53 6.188026610437287 5.617131816245227 18.674928263967402 1 2 -1
133 27 3 -0.53 8.650729047398064 6.7412515540309155 16.472234381301323 0 0 1
2399 480 4 0 4.527321833104542 9.554320685728342 20.412702201402354 0 0 1
2397 480 2 -0.44 5.958089325442394 8.33127964811303 19.505467478072923 0 0 1
2396 480 1 0.52 5.128097419724524 8.675082380385385 20.38017502474063 0 0 1
2398 480 3 -0.53 5.109057876281118 7.972845972688388 21.498015968660866 0 0 1
3148 630 3 -0.53 11.197010712037699 5.56378619301037 18.287864905842248 -1 0 -1
557 112 2 -0.44 4.02889006462048 9.829950601665459 16.30585406657721 0 0 -1
1809 362 4 0 6.896053123155436 9.571954458918842 17.30944481949867 0 1 -1
2706 542 1 0.52 9.107735511972615 9.903669764982444 20.126672256185316 -1 0 0
131 27 1 0.52 9.439258995932697 7.107113459698786 15.442064729640716 0 0 1
135 27 5 0.45 7.89742901543868 6.241386894655582 16.14502701636372 0 0 1
1806 362 1 0.52 7.412670026282839 9.828308757741663 16.3662982638427 0 1 -1
2709 542 4 0 8.090709998769267 9.504649092425039 20.076800837365706 -1 0 0
132 27 2 -0.44 10.621435285941649 7.5094342408899255 15.612479788481934 0 0 1
134 27 4 0 9.09910205189248 6.785829888971 14.502956208733693 0 0 1
2607 522 2 -0.44 9.025476331617146 5.606723216104237 20.19823703239378 2 1 1
1462 293 2 -0.44 13.430510907719786 6.103090356945051 21.87415953155925 -1 0 0
3146 630 1 0.52 11.729481453873314 6.766783969161578 18.486221272169782 -1 0 -1
2707 542 2 -0.44 9.820640526069075 9.846322017667621 19.16315429984838 -1 0 0
3285 657 5 0.45 11.94331266992555 7.839627592870659 14.293102856784316 -1 2 0
3369 674 4 0 12.628093433732111 4.84755713888346 15.687633960832722 0 2 1
3149 630 4 0 11.067518022244016 7.582492133413968 18.87458287420157 -1 0 -1
1808 362 3 -0.53 6.5231444408442725 9.734590839438678 15.311010749051011 0 1 -1
4066 814 1 0.52 6.056531945484043 5.4185431684240255 14.766921537818261 0 1 1
1810 362 5 0.45 5.808536721806924 9.332029866062818 15.835439675285727 0 1 -1
2708 542 3 -0.53 9.53932593968588 10.70794915728251 21.150536829353356 -1 0 0
3150 630 5 0.45 10.352678025135269 5.47613246145872 18.68431979008414 -1 0 -1
2606 522 1 0.52 8.36366278607796 5.794992376093713 21.260019710193962 2 1 1
4470 894 5 0.45 6.19806626925126 6.352788907541193 19.30221585689401 1 2 -1
2355 471 5 0.45 7.604235315560193 10.108011793324884 13.930813126933431 1 0 1
3147 630 2 -0.44 12.898229228909031 7.003653252485857 18.275242006563957 -1 0 -1
4069 814 4 0 5.188626036121231 4.938701828116441 14.378719474811966 0 1 1
4466 894 1 0.52 4.993952569043711 5.133025465982104 18.408183800682696 1 2 -1
4469 894 4 0 4.179696957343537 5.790767631157452 18.789364273715545 1 2 -1
4434 887 4 0 11.80069083673534 9.677961053786118 20.813961277175085 -1 0 0
2400 480 5 0.45 4.465512972933492 8.368915918343985 22.105399007074933 0 0 1
1465 293 5 0.45 10.545384631282946 6.7083778373104055 22.011781879818646 -1 0 0
2353 471 3 -0.53 8.315539674551456 10.12045731980006 13.310086000565374 1 0 1
4435 887 5 0.45 11.430846552235948 9.913356980911324 19.010775084046006 -1 0 0
4433 887 3 -0.53 12.350105967617228 10.010241587437974 18.877515616143697 -1 0 0
2710 542 5 0.45 8.860900912807207 10.804814460618323 21.866802483670913 -1 0 0
1463 293 3 -0.53 11.397422358883631 7.009871958847852 21.698730305825322 -1 0 0
4077 816 2 -0.44 4.209396243786032 4.834454583889062 21.798371018275756 1 2 1
2608 522 3 -0.53 9.039047063488997 6.015106718914612 22.44495342148088 2 1 1
4068 814 3 -0.53 6.745367453477812 4.821048394458839 15.880312883458167 0 1 1
3283 657 3 -0.53 12.756616337013536 8.227956134091128 13.954417093679506 -1 2 0
4431 887 1 0.52 12.743081999374839 9.656238651405552 20.175337661428212 -1 0 0
2609 522 4 0 7.225950708153304 5.957551054985797 21.298878285840825 2 1 1
1807 362 2 -0.44 8.532842280886149 10.313660503488046 16.211042496686055 0 1 -1
4067 814 2 -0.44 6.588599845220475 6.33973222040678 14.263532398771458 0 1 1
3281 657 1 0.52 13.808433300744783 8.086621826704121 14.802851074306105 -1 2 0
1554 311 4 0 11.630198898642128 9.86672155397843 15.489557786661628 1 2 1
1461 293 1 0.52 12.290420329520966 6.077340507159042 22.225754859143986 -1 0 0
1551 311 1 0.52 11.896947747833988 10.881541331650617 15.723647851306376 1 2 1
1943 389 3 -0.53 3.8138720740451846 9.961929423978477 12.903288867144317 -1 0 2
3284 657 4 0 13.62414052824665 7.4728088554527545 15.743553618007073 -1 2 0
427 86 2 -0.44 6.256228903240439 11.82790844885637 22.608677745533324 1 0 2
1695 339 5 0.45 7.005706880454437 13.298754937831543 13.432033651855324 -1 0 2
1555 311 5 0.45 10.128807299574396 11.079196266920743 16.252212157031423 1 2 1
1553 311 3 -0.53 10.883365564468242 11.629327453001636 16.22549590083725 1 2 1
1942 389 2 -0.44 5.6535092815062935 11.063974391416128 12.834706232377028 -1 0 2
783 157 3 -0.53 9.16303380729694 14.041687467012974 21.699638901137092 -1 0 1
46 10 1 0.52 7.163743415720931 16.735198700581293 14.714256451180775 -1 -1 -1
50 10 5 0.45 5.944820799431779 16.78873209060555 13.048767931691714 -1 -1 -1
1941 389 1 0.52 4.55879162895452 11.034406541009101 13.242925605353848 -1 0 2
58 12 3 -0.53 6.612012340461819 15.019650815375519 21.86875427727483 -2 1 0
48 10 3 -0.53 6.869947466166874 16.826796541776968 13.36904088048815 -1 -1 -1
56 12 1 0.52 5.309572613100449 14.942759407260938 21.78891133237349 -2 1 0
785 157 5 0.45 9.59805242775361 13.351767292704947 22.19502070326686 -1 0 1
2230 446 5 0.45 4.3503596942411145 16.032139945777395 19.117678929604814 0 -1 1
784 157 4 0 10.993279694454106 14.867175359264786 22.078457389951105 -1 0 1
3571 715 1 0.52 5.492455879138994 13.380332331855815 15.701062156295036 1 -1 1
1589 318 4 0 10.87082275197444 13.586361266885717 18.383174425220393 -2 0 0
782 157 2 -0.44 9.793863788296651 16.0976497352698 21.075691253840215 -1 0 1
4534 907 4 0 12.060106713880876 14.256666450181626 13.832612709808796 2 -1 0
3320 664 5 0.45 6.704374713151553 13.726224671692417 20.44228957169245 1 -1 -1
3318 664 3 -0.53 6.9268536162779615 12.952523037633698 19.87073111679641 1 -1 -1
1586 318 1 0.52 11.151677963135064 14.408931471416867 17.84481956523962 -2 0 0
3319 664 4 0 8.254055686445444 14.263993141326738 18.997954843271188 1 -1 -1
1590 318 5 0.45 10.836919125483906 13.306048179838482 16.335029426760126 -2 0 0
3439 688 4 0 12.062933037128317 12.588958089284104 22.373343291145012 -1 0 0
3437 688 2 -0.44 12.525305405597463 13.30697440658067 20.663636799780956 -1 0 0
4535 907 5 0.45 12.333659670414516 15.693515403745046 15.591088262744767 2 -1 0
3575 715 5 0.45 4.606392814045271 13.541983215632882 17.42585056347489 1 -1 1
2228 446 3 -0.53 4.536210908988104 16.785101735852134 18.578298039341075 0 -1 1
47 10 2 -0.44 8.277597526992068 17.10044438353474 15.037547266115208 -1 -1 -1
4531 907 1 0.52 13.068727295318734 14.577934447749147 14.145353919594237 2 -1 0
1552 311 2 -0.44 12.941433091616403 11.334540738631684 15.371533100604996 1 2 1
3436 688 1 0.52 12.79068904667413 12.637890810096136 21.621919864999487 -1 0 0
3572 715 2 -0.44 5.906493155250139 13.950434136658496 14.703040794095726 1 -1 1
3316 664 1 0.52 7.85440567498997 13.244401304127145 18.937601474991396 1 -1 -1
3317 664 2 -0.44 8.222372452305859 12.436469739280867 18.09500373629301 1 -1 -1
4533 907 3 -0.53 13.17627230301086 15.399629173122404 15.205080879646689 2 -1 0
1691 339 1 0.52 8.806147084015649 13.347853635311413 13.853759035538609 -1 0 2
3574 715 4 0 5.292549340855434 12.310368559658876 15.723183572016422 1 -1 1
1694 339 4 0 8.571038275830855 13.19161532373666 14.896777945954563 -1 0 2
3573 715 3 -0.53 5.233551309538722 14.080900291582727 16.862706610320433 1 -1 1
57 12 2 -0.44 4.761418239837042 14.94672577595442 20.660103240347322 -2 1 0
1587 318 2 -0.44 11.543323710079012 15.505391389128146 18.27673916591955 -2 0 0
1588 318 3 -0.53 10.871263286325085 14.267363862027898 16.519197636778507 -2 0 0
781 157 1 0.52 10.029404242464896 15.002114194178096 21.599721957771305 -1 0 1
1693 339 3 -0.53 7.801822686339003 13.20557527494457 12.95455860629018 -1 0 2
1430 286 5 0.45 9.932095060007505 17.036013168053085 15.622923131454558 -1 0 0
1692 339 2 -0.44 9.923317935311973 13.459514129864784 13.415088799180236 -1 0 2
49 10 4 0 6.342554089908921 16.908760758921744 15.349146286604487 -1 -1 -1
4645 929 5 0.45 11.274697280146055 17.230994626784074 20.951761544352998 1 -1 0
1428 286 3 -0.53 10.890433174160698 17.013213109982665 15.560451579834957 -1 0 0
1944 389 4 0 4.028494745750708 11.841303119592581 13.796899622860915 -1 0 2
934 187 4 0 9.304370314070121 7.3109935045314165 26.068879976377186 0 0 1
931 187 1 0.52 9.586360896876851 8.090655961814809 25.366374309125902 0 0 1
933 187 3 -0.53 8.771476260850687 9.151720593294387 25.399145542269753 0 0 1
935 187 5 0.45 8.213557320226982 9.103450732052131 26.226670961498954 0 0 1
2092 419 2 -0.44 7.349410780384089 8.473842555920143 27.495061955295714 1 3 -1
3416 684 1 0.52 4.796895396076065 4.643076629549132 30.271762334500206 0 -1 -2
2091 419 1 0.52 7.333926796172975 7.477310594853302 28.19335648213985 1 3 -1
932 187 2 -0.44 10.466123727420726 8.081583200019647 24.487568890102946 0 0 1
672 135 2 -0.44 11.137808298500925 8.294423967848603 28.681694709852486 -1 0 -1
673 135 3 -0.53 10.193252456582545 6.2278947723311475 29.090991804941662 -1 0 -1
4764 953 4 0 5.376704744867036 10.279018599637592 26.45637335864742 1 1 0
3801 761 1 0.52 8.899449990721763 10.761218846225539 29.415553034253776 0 1 -1
3804 761 4 0 7.909399278446245 10.407511545402286 29.654316914850533 0 1 -1
671 135 1 0.52 11.025936583270143 7.283495000181315 29.389617154746606 -1 0 -1
2094 419 4 0 7.216486808997804 7.588865288457589 29.26947696812712 1 3 -1
1109 222 4 0 5.48451519293296 6.751745336423962 25.347543247604545 0 0 0
1106 222 1 0.52 6.177049911276558 6.886911424936667 24.52709992624407 0 0 0
675 135 5 0.45 10.584765328406782 5.390903827948284 29.39906955427548 -1 0 -1
1119 224 4 0 13.78406759890114 8.679500354214646 30.666831518745774 0 0 -2
1107 222 2 -0.44 6.434466831474409 8.047843435155832 24.149868635182337 0 0 0
2773 555 3 -0.53 12.352380238307644 9.621362631188726 23.501709961485133 0 0 -1
2775 555 5 0.45 11.756229698128626 9.069049534563922 23.95081065625214 0 0 -1
2771 555 1 0.52 13.576403844492159 9.712554671324874 24.092556345570035 0 0 -1
2818 564 3 -0.53 4.5760882735844195 8.684840984655123 31.424284923416685 1 0 0
1108 222 3 -0.53 6.81628408782213 5.7438646936810915 24.120806199102443 0 0 0
3745 749 5 0.45 11.098406303395047 9.970107189843606 27.67914212359153 2 -1 2
3805 761 5 0.45 9.313856476026936 10.538209037592859 31.34128180792336 0 1 -1
674 135 4 0 11.77095195382924 7.225777325445751 30.162492887759505 -1 0 -1
2093 419 3 -0.53 7.728639753044526 6.321454097810363 27.57333695374536 1 3 -1
3743 749 3 -0.53 11.605166499476223 10.282282585084225 26.94073719803061 2 -1 2
2774 555 4 0 13.609107770492352 9.104212781573601 25.02097539907177 0 0 -1
429 86 4 0 6.083422659176744 10.475786206006132 24.221276123528416 1 0 2
2817 564 2 -0.44 3.998626006080916 8.618899839494429 29.147992774101294 1 0 0
2816 564 1 0.52 3.8304044135377335 8.226129692732535 30.328679246344493 1 0 0
1116 224 1 0.52 13.762430675568645 9.49038510501889 31.411631107607285 0 0 -2
1117 224 2 -0.44 13.317512829295689 10.572853769270552 31.129471487852726 0 0 -2
2610 522 5 0.45 8.37644678622673 6.096002720641095 23.136973778325466 2 1 1
806 162 1 0.52 7.708612523146754 8.525801321989725 32.438566261993884 1 0 -2
810 162 5 0.45 7.829160603123856 6.7842829791184665 31.731808020333098 1 0 -2
3803 761 3 -0.53 9.679519541193546 10.844215266631853 30.469184870205527 0 1 -1
807 162 2 -0.44 8.17204173401678 9.696932671538617 32.35709738858679 1 0 -2
2095 419 5 0.45 7.820304633109164 5.660896653110283 28.313163267149665 1 3 -1
3312 663 2 -0.44 13.442461999139077 7.319742117131108 26.688634667204852 1 1 0
4407 882 2 -0.44 11.113240519977495 7.199206390523157 32.44205749220062 0 0 -2
808 162 3 -0.53 7.866723361026995 7.699481617225307 31.40980546307503 1 0 -2
430 86 5 0.45 7.670795263297016 9.555078631608787 23.695499637778354 1 0 2
4765 953 5 0.45 4.306344070362139 10.176062271381383 28.45008520473451 1 1 0
217 44 2 -0.44 7.712491254052664 5.376370474568427 32.49550828157683 -1 1 1
1110 222 5 0.45 6.40960606571776 4.9968579678987135 24.53431891392797 0 0 0
3311 663 1 0.52 13.155913537158305 6.131713664401459 26.77485287042938 1 1 0
3417 684 2 -0.44 4.934352842052302 5.272873569534137 29.230246330637684 0 -1 -2
3419 684 4 0 5.2142477100757425 5.04479709838507 31.176824939968103 0 -1 -2
426 86 1 0.52 6.529599622016679 10.856192488406432 23.30836052558304 1 0 2
428 86 3 -0.53 7.728309873463732 10.335590643307082 23.152996678453896 1 0 2
2820 564 5 0.45 4.409530237574528 8.237569268464926 32.27727801348766 1 0 0
3314 663 4 0 12.145210473034366 5.772223672548863 27.16545839033677 1 1 0
1464 293 4 0 11.982720345875027 5.479371943469875 22.995514407684656 -1 0 0
511 103 1 0.52 4.197369209427253 15.738225288792243 32.65217142882825 0 2 -2
4600 920 5 0.45 11.531090954754816 15.138158572839076 25.565450622525972 0 1 1
1903 381 3 -0.53 11.264577480800346 17.165152319966538 30.336092720170367 0 0 2
3744 749 4 0 12.472638980534002 11.485755042744666 28.513816958154408 2 -1 2
3741 749 1 0.52 12.55534990364464 11.154639216503188 27.466457282764402 2 -1 2
2474 495 4 0 10.900760803090549 12.200162632431795 25.385156119480534 1 1 0
3742 749 2 -0.44 13.277195145285377 11.673225120943565 26.671932972397954 2 -1 2
4762 953 2 -0.44 5.651681021641538 12.253389558801935 26.758735596241443 1 1 0
4761 953 1 0.52 5.216907314418021 11.189541155144033 27.115367001956216 1 1 0
4598 920 3 -0.53 12.04197174683738 15.17323735044603 24.73425834930193 0 1 1
731 147 1 0.52 5.5861172895811295 15.145569358632397 28.918199862020884 -1 1 0
512 103 2 -0.44 4.835950922399718 16.486166473146604 31.90482740488737 0 2 -2
2472 495 2 -0.44 9.78140092273486 12.272910809990385 23.592484468100597 1 1 0
732 147 2 -0.44 5.1053055237564156 16.1202599442461 28.43544616409828 -1 1 0
734 147 4 0 4.9744579412006225 14.4594901718253 29.54085511190839 -1 1 0
1582 317 2 -0.44 10.697455519940812 14.089835582820628 31.167355155186872 1 2 0
1583 317 3 -0.53 12.44478208424898 12.95298639809408 31.41551768471976 1 2 0
735 147 5 0.45 6.939421514588781 14.000462564552063 29.22194280479969 -1 1 0
3802 761 2 -0.44 9.07541999069175 11.388714271637177 28.390285971175274 0 1 -1
4596 920 1 0.52 13.23220079433201 14.611052950911356 25.051388682183088 0 1 1
4599 920 4 0 13.275509969725741 14.146728226599523 25.96249180891938 0 1 1
4132 827 2 -0.44 7.017276122659472 12.873107042214722 30.649691699242897 2 -2 0
59 12 4 0 4.830392304605205 14.726111948145252 22.752863372841098 -2 1 0
4763 953 3 -0.53 4.498067360754365 11.077362582519115 28.245945703588507 1 1 0
4133 827 3 -0.53 6.164663920014256 12.668669818959676 32.630522725445644 2 -2 0
4330 866 5 0.45 7.706731851666209 14.667358367650488 31.509357498942258 1 1 0
2471 495 1 0.52 9.98010877764234 12.28741186883402 24.852721991180108 1 1 0
4043 809 3 -0.53 11.903437278837716 15.133643404109256 28.631938411988003 1 -1 -1
2475 495 5 0.45 9.024469701753349 11.85872156300292 26.5754403375028 1 1 0
1279 256 4 0 7.739960581510353 14.358941077628499 25.88995046504042 0 1 1
4045 809 5 0.45 11.65472619088694 15.349667099290032 29.516729853105996 1 -1 -1
1278 256 3 -0.53 5.732539692006586 14.608072018202233 25.411119392990585 0 1 1
1280 256 5 0.45 5.57515310864356 13.773838142330632 25.860964322516203 0 1 1
1581 317 1 0.52 11.163368558294867 13.195297085092887 31.815779686792645 1 2 0
4042 809 2 -0.44 10.739855173641756 14.441771037076958 26.876577692886777 1 -1 -1
4131 827 1 0.52 6.381258763072041 12.192837511801624 31.426773527054877 2 -2 0
4041 809 1 0.52 10.75494475724508 14.86409262935816 28.057799075888912 1 -1 -1
1585 317 5 0.45 12.79721870053362 12.064919744679287 31.59562144622251 1 2 0
2473 495 3 -0.53 8.902209451111244 12.159318156756513 25.67540177057413 1 1 0
733 147 3 -0.53 6.8445176252652775 14.782936714667345 28.67836757078674 -1 1 0
4134 827 4 0 6.126642121209496 11.147808895968664 31.162082453095827 2 -2 0
4044 809 4 0 9.816322595921912 15.012428251665538 28.634952588209593 1 -1 -1
3879 776 4 0 9.573175630300101 16.981600338940144 26.061520867502978 1 -1 -1
4328 866 3 -0.53 8.057582724333948 15.406076813667225 31.895669831207314 1 1 0
1277 256 2 -0.44 7.405282398985702 15.638714757939331 24.443772849759448 0 1 1
1276 256 1 0.52 7.02660727863912 14.896993963196058 25.330475941386563 0 1 1
1905 381 5 0.45 11.541519155383408 16.8546957793304 31.187868363843997 0 0 2
60 12 5 0.45 7.0710984240279 15.09455318035748 22.72382617057987 -2 1 0
3395 679 5 0.45 6.475753551707115 17.158017531643793 27.815712562689058 1 -1 1
1621 325 1 0.52 7.595897761470658 6.497468933088321 41.052795251311764 0 -1 0
1622 325 2 -0.44 8.811530395855062 6.537259987504507 40.841244008132605 0 -1 0
2317 464 2 -0.44 9.208064805057225 8.962663535805252 36.23726144907232 1 1 1
2316 464 1 0.52 9.063736342986623 7.713847566032432 36.135841003423195 1 1 1
3871 775 1 0.52 12.220215841853936 7.278911508841121 40.76877848916649 1 2 -1
2213 443 3 -0.53 5.036269810940487 6.029886147475186 35.09894952373577 -2 0 -2
1623 325 3 -0.53 7.108629926703021 7.120737802271329 42.16321755101421 0 -1 0
3873 775 3 -0.53 11.311460344983317 7.694877459277701 41.67235202864971 1 2 -1
845 169 5 0.45 7.438224916134101 8.732283579739686 38.656340596598696 2 2 0
695 139 5 0.45 10.732990079947047 10.237560899777048 35.31386188630779 -1 0 -1
3875 775 5 0.45 10.489970988585966 7.757747902072532 41.167242206322996 1 2 -1
843 169 3 -0.53 8.303445223058624 8.795293597648694 39.07071039149089 2 2 0
2215 443 5 0.45 4.847322502232885 5.552665130753098 35.94732379169821 -2 0 -2
2211 443 1 0.52 3.9101785144299446 6.186382535065673 34.354671584771474 -2 0 -2
3872 775 2 -0.44 13.285998695249917 6.8090630345014365 41.14376560170635 1 2 -1
2319 464 4 0 9.734215181619021 7.011589677302345 36.713276454818455 1 1 1
4409 882 4 0 10.453819645901758 5.634279911807026 33.54472488685727 0 0 -2
2318 464 3 -0.53 8.135548535359586 7.1473235820849474 35.32898470558136 1 1 1
2320 464 5 0.45 7.901383359748411 6.281646746905631 35.54461090103315 1 1 1
3816 764 1 0.52 4.23626577058983 10.42799058888114 41.861842610664 2 0 -2
3083 617 3 -0.53 3.882325591409338 8.133096144439754 37.49592891129711 1 1 0
1624 325 4 0 6.8973378795042395 6.185727590603463 40.23830985825563 0 -1 0
4406 882 1 0.52 11.12103694211309 6.434050191420692 33.366856799540884 0 0 -2
1415 283 5 0.45 6.493503515070357 9.416258925589185 36.51337738005863 1 3 0
3869 774 4 0 11.917637490066744 5.1841039464044725 38.546609513300936 -1 2 0
841 169 1 0.52 8.566787055535832 10.061314702972682 39.379867388956626 2 2 0
693 139 3 -0.53 11.624801204778738 10.246288364933186 34.963037538386246 -1 0 -1
1413 283 3 -0.53 6.353454994107479 9.71594967797678 35.612154413817635 1 3 0
3081 617 1 0.52 4.904180492331861 8.141701641628615 38.38119188588044 1 1 0
844 169 4 0 9.142706905570577 10.189664130633558 40.29653285406077 2 2 0
4410 882 5 0.45 11.935177495965785 5.871707249083427 35.013888638878 0 0 -2
3817 764 2 -0.44 5.373616748939107 10.826138218833083 41.625573366571956 2 0 -2
691 139 1 0.52 12.394610996039585 9.535179583657062 35.76925376602682 -1 0 -1
4408 882 3 -0.53 12.079721341362887 6.517619615034812 34.33388990490246 0 0 -2
3082 617 2 -0.44 6.069865953937857 8.54394881184271 38.01491266089727 1 1 0
694 139 4 0 11.92916595244068 9.03070221476695 36.66622384245477 -1 0 -1
1625 325 5 0.45 6.19027662646533 6.791672025136454 42.21893618558926 0 -1 0
3874 775 4 0 11.987509216959774 7.230616329766803 39.68556527151043 1 2 -1
54 11 4 0 11.48022441152537 10.844023764426906 41.935916500600115 1 0 0
52 11 2 -0.44 11.61084171448461 10.82955889692234 40.005034588521795 1 0 0
2722 545 2 -0.44 7.675189484955919 5.177702871248247 37.70937683523921 0 0 1
3866 774 1 0.52 11.995624238607174 5.391509092178591 37.50860441346491 -1 2 0
2212 443 2 -0.44 4.057514001043238 6.580955298261113 33.18705162904821 -2 0 -2
809 162 4 0 7.157808968403149 8.211435868716912 33.26833125856973 1 0 -2
3867 774 2 -0.44 12.79758935584797 6.233423702197293 37.21523993525433 -1 2 0
3084 617 4 0 4.618073388999413 8.038270148361669 39.41951845798599 1 1 0
1411 283 1 0.52 5.257409790798342 10.44964937352298 35.39446061201815 1 3 0
2793 559 3 -0.53 4.024747033934148 4.657200080031772 39.34413960990625 0 0 0
1412 283 2 -0.44 5.017265353798023 10.918343980576187 34.304595790447564 1 3 0
692 139 2 -0.44 13.539897322578657 9.420186259123614 35.56205309004321 -1 0 -1
4465 893 5 0.45 8.124604810967718 10.567603705660986 35.25846588146436 1 2 0
842 169 2 -0.44 7.99553899832253 10.912542709318377 38.80064496475015 2 2 0
3819 764 4 0 4.028795382020532 9.36557617159885 41.98684286392614 2 0 -2
1877 376 2 -0.44 4.516543990788504 6.691282762324212 41.841646252935845 2 1 -1
1414 283 4 0 4.582444763893333 10.638595999326853 36.20227502981987 1 3 0