LAMMPS data file via write_data, version 29 Aug 2024, timestep = 1000000, units = real

4802 atoms
14 atom types
4802 bonds
14 bond types
6860 angles
20 angle types
9604 dihedrals
28 dihedral types
2058 impropers
6 improper types

4.022290945335143 44.25831905466528 xlo xhi
6.837514795374172 43.299935204632234 ylo yhi
5.594068995888293 45.77800100410269 zlo zhi

Masses

1 12.011
2 12.011
3 12.011
4 12.011
5 12.011
6 12.011
7 15.999
8 32.06
9 1.008
10 1.008
11 1.008
12 1.008
13 1.008
14 1.008

Pair Coeffs # lj/cut/coul/long

1 0.07 3.55
2 0.07 3.55
3 0.07 3.55
4 0.07 3.55
5 0.07 3.55
6 0.07 3.55
7 0.17 3.07
8 0.25 3.55
9 0.03 2.42
10 0.03 2.42
11 0.03 2.42
12 0.03 2.42
13 0 0
14 0 0

Bond Coeffs # harmonic

1 469 1.4
2 469 1.4
3 469 1.4
4 469 1.4
5 469 1.4
6 450 1.364
7 250 1.74
8 367 1.08
9 367 1.08
10 367 1.08
11 367 1.08
12 553 0.945
13 274 1.336
14 469 1.4

Angle Coeffs # harmonic

1 63 120
2 63 120
3 63 120
4 63 120
5 70 120
6 70 120
7 35 120
8 35 120
9 35 120
10 35 120
11 35 113
12 50 96
13 35 120
14 63 120
15 63 120
16 35 120
17 35 120
18 70 120
19 70 120
20 35 120

Dihedral Coeffs # opls

1 0 7.25 0 0
2 0 7.25 0 0
3 0 7.25 0 0
4 0 1.682 0 0
5 0 1.1 0 0
6 0 7.25 0 0
7 0 7.25 0 0
8 0 7.25 0 0
9 0 7.25 0 0
10 0 7.25 0 0
11 0 7.25 0 0
12 0 7.25 0 0
13 0 1.682 0 0
14 0 7.25 0 0
15 0 7.25 0 0
16 0 7.25 0 0
17 0 7.25 0 0
18 0 7.25 0 0
19 0 7.25 0 0
20 0 7.25 0 0
21 0 7.25 0 0
22 0 7.25 0 0
23 0 7.25 0 0
24 0 7.25 0 0
25 0 1.1 0 0
26 0 7.25 0 0
27 0 7.25 0 0
28 0 7.25 0 0

Improper Coeffs # cvff

1 1.1 -1 2
2 1.1 -1 2
3 1.1 -1 2
4 1.1 -1 2
5 1.1 -1 2
6 1.1 -1 2

Atoms # full

2484 178 6 -0.115 8.092118097549616 10.53090662353728 9.090164533815233 0 1 0
2479 178 1 -0.115 8.617340076050386 9.20522417849352 9.151135282043393 0 1 0
2483 178 5 0.15 6.882889038841972 10.821715564303052 8.441666357600479 0 1 0
2180 156 10 0.115 6.373179073848409 9.904395524167732 11.10498929154479 1 0 -1
2490 178 12 0.115 8.780479668848649 11.232623353498067 9.591957341477617 0 1 0
3774 270 8 -0.22 9.813979696909373 13.060719822006995 11.623250421534332 0 0 1
3770 270 4 0.065 8.971747449446834 12.749684516728884 13.07566317443942 0 0 1
3482 249 10 0.115 7.418344575061251 9.240521704366623 12.986409261223695 1 0 0
3474 249 2 -0.115 7.61559069352223 8.19927570907788 13.226833485630706 1 0 0
2481 178 3 -0.115 6.717572780108172 8.458177912783555 7.819682725313043 0 1 0
4286 307 2 -0.115 13.057243885886743 8.858895586895095 12.816897054500046 0 0 1
2485 178 7 -0.585 6.509323705085567 12.067976537013633 8.340131076635279 0 1 0
3483 249 11 0.115 5.632611529687077 8.03832814301848 14.006694997040226 1 0 0
2491 178 13 0.435 7.341893173212203 12.584014924885576 8.430731569313984 0 1 0
2482 178 4 0.065 6.227818997560069 9.784130676501233 7.734806212466033 0 1 0
2487 178 9 0.115 9.4769670975932 8.90813503301473 9.699492166466792 0 1 0
3779 270 13 0.435 11.106901513654902 13.940794989784854 13.194177250542124 0 0 1
3958 283 10 0.115 11.024428615867224 9.815160772894348 14.633994198582501 0 1 0
4626 331 6 -0.115 12.739048115049233 15.937569786584785 12.090228524569397 0 0 1
344 25 8 -0.22 13.518966712271135 12.814209571549132 15.46301316265081 0 0 0
3122 223 14 0.155 13.310985327954558 10.660564305770219 7.164231910130058 0 0 1
3112 223 4 0.065 11.005170971653001 10.589355211000075 6.810354371831532 0 0 1
4294 307 10 0.115 12.026390940187767 9.230190153307243 12.714350568370687 0 0 1
3116 223 8 -0.22 12.250947234018868 10.282101664030641 7.8754387966402675 0 0 1
2480 178 2 -0.115 7.949101865552357 8.153510024432519 8.53720155682361 0 1 0
4634 331 14 0.155 13.708986104188119 12.553260028236256 10.785110420266562 0 0 1
3473 249 1 -0.115 8.877482361077199 7.512588588200158 13.056102776705973 1 0 0
3113 223 5 0.15 10.600912157167828 11.920940974857542 6.488077267453973 0 0 1
3773 270 7 -0.585 10.699388049437928 14.001634770704065 14.059957728957833 0 0 1
3771 270 5 0.15 9.58506568607479 13.193673801815581 14.222670763255229 0 0 1
2179 156 9 0.115 5.939953269508039 7.476162883040117 11.067629717324667 1 0 -1
2486 178 8 -0.22 4.7403649028713675 10.011504765147976 6.822495972932406 0 1 0
3121 223 13 0.435 11.778611482000382 12.549271974290669 7.681690972012514 0 0 1
3769 270 3 -0.115 7.72012083333228 12.149753280550714 13.21921361243989 0 0 1
4627 331 7 -0.585 13.382536467720156 13.707380370341385 12.395624497109875 0 0 1
2171 156 1 -0.115 5.118265012029421 8.206894956550373 10.905284076512187 1 0 -1
2492 178 14 0.155 4.233334296030915 11.176736421523092 7.347811992180022 0 1 0
4628 331 8 -0.22 13.416627152697961 12.983552476543249 9.537769397415198 0 0 1
3777 270 11 0.115 7.190953993158368 11.831431328920218 12.371817631635386 0 0 1
4632 331 12 0.115 12.989504098041433 16.046734713146606 13.090994254961911 0 0 1
4368 312 14 0.155 14.063573260975538 16.73495765879165 7.704729306754479 1 0 1
3776 270 10 0.115 6.257001664873018 11.37432774719922 14.700713174382905 0 0 1
3115 223 7 -0.585 11.13549328914944 12.99176790301727 7.141553519680766 0 0 1
4629 331 9 0.115 12.114241380086641 18.01803211249772 11.670438475243145 0 0 1
2172 156 2 -0.115 5.3081112599864495 9.622144289861353 11.005057723657895 1 0 -1
3481 249 9 0.115 9.663100185074804 8.090262612285143 12.656028180231987 1 0 0
3475 249 3 -0.115 6.573963412482799 7.522546652676674 13.840548306550929 1 0 0
1745 125 9 0.115 11.460300705386043 7.290451733045056 10.642509611632477 0 0 1
3768 270 2 -0.115 7.103848489015942 11.978795981494292 14.466167444797685 0 0 1
4285 307 1 -0.115 13.228085092226769 7.529448201814969 13.215022008549926 0 0 1
4621 331 1 -0.115 12.20822591580842 16.994008772438995 11.300775993956384 0 0 1
2489 178 11 0.115 6.109444059765916 7.755500228066548 7.3998506630864105 0 1 0
2137 153 9 0.115 4.070603550811876 15.103235784476041 10.692236139396197 1 0 1
3780 270 14 0.155 9.185514806938077 14.117579291629806 11.230729366362098 0 0 1
124 9 12 0.115 7.391981182861295 14.320844272494966 10.901443330344744 0 0 1
3111 223 3 -0.115 10.425531949602394 9.471845564017752 6.164599307706014 0 0 1
118 9 6 -0.115 7.568481667412161 15.155663741207121 10.24314370030316 0 0 1
119 9 7 -0.585 8.767626380888274 13.7085098515058 8.846537311594156 0 0 1
125 9 13 0.435 9.542052875045005 13.646687227865133 8.275867625643043 0 0 1
279 20 13 0.435 4.9736319450150255 12.461036025182704 8.123664802520581 0 0 1
4580 328 2 -0.115 9.262438882730043 17.368716287939755 15.163525816460217 0 -1 1
4581 328 3 -0.115 9.940675132513991 18.524309987314812 15.571288856117212 0 -1 1
4624 331 4 0.065 12.68793617544854 14.396727378391626 10.145925737047088 0 0 1
272 20 6 -0.115 4.872365834044013 14.900688106262919 7.973682489769999 0 0 1
2601 186 11 0.115 6.179138030065813 18.161618634275698 13.740229882210523 0 0 0
275 20 9 0.115 5.53106405470639 16.912064875547607 7.920018041239184 0 0 1
122 9 10 0.115 7.055862394435636 18.559854799080505 10.079757868740783 0 0 1
115 9 3 -0.115 8.113801117530453 17.330562317664757 8.611313417860131 0 0 1
126 9 14 0.155 9.011484370567818 17.01700504073873 6.110585766060012 0 0 1
4631 331 11 0.115 12.18292899665713 15.217834457805715 8.308447994749384 0 0 1
2138 153 10 0.115 4.712683327650127 13.54452665275925 12.775681210539098 1 0 1
4587 328 9 0.115 8.524775623766303 16.271871065451265 13.426541098262852 0 -1 1
4096 293 8 -0.22 10.928354110382745 18.85492955674698 6.929139161487767 1 2 1
4625 331 5 0.15 12.94572147518911 14.67342662827882 11.52582614832949 0 0 1
4623 331 3 -0.115 12.369104507878436 15.505991856956763 9.357564238419439 0 0 1
121 9 9 0.115 6.55867920656311 16.439843575832242 11.413599945650606 0 0 1
267 20 1 -0.115 4.68899698702711 16.28780356388654 7.764105038884308 0 0 1
113 9 1 -0.115 7.157981026603229 16.429982423650678 10.55659592556425 0 0 1
117 9 5 0.15 8.320918689016374 14.98770839575053 9.0680760167699 0 0 1
123 9 11 0.115 8.283671113885818 18.088240707472064 7.890145256904206 0 0 1
4622 331 2 -0.115 11.971028909527783 16.733845342539034 9.896609918999314 0 0 1
4362 312 8 -0.22 13.800224458192996 16.47149516147295 6.428399172552813 1 0 1
120 9 8 -0.22 9.080502793076363 15.74291769431163 6.595092425987563 0 0 1
278 20 12 0.115 5.898053408866657 14.574211760884443 8.263375887136645 0 0 1
116 9 4 0.065 8.481438855607927 16.060767259929364 8.197076211267358 0 0 1
114 9 2 -0.115 7.460610737886256 17.517630184672093 9.803680092532602 0 0 1
4579 328 1 -0.115 9.106965280094002 17.165098285821742 13.823155498897176 0 -1 1
4584 328 6 -0.115 9.685415116595248 18.042576964555913 12.885206558485084 0 -1 1
4590 328 12 0.115 9.728239040613268 17.64789738541726 11.920582104218658 0 -1 1
1746 125 10 0.115 11.116239601387779 7.3165066548393 8.180782746230209 0 0 1
2604 186 14 0.155 4.337011322077215 17.170462973737372 13.216495773157618 0 0 0
4630 331 10 0.115 11.699435461264168 17.540020860176327 9.261393334946826 0 0 1
2150 154 8 -0.22 5.423984632796044 15.649194894532968 15.006558062549288 0 0 0
2488 178 10 0.115 8.385639909377085 7.115802452890632 8.616520311065237 0 1 0
4102 293 14 0.155 10.274566581907095 18.713991240392303 8.052737402888557 1 2 1
2181 156 11 0.115 4.412167888909051 11.48588451093184 10.767936952229885 1 0 -1
350 25 14 0.155 12.231831509716308 13.099156405084877 15.565620227722844 0 0 0
2173 156 3 -0.115 4.215721144479522 10.46631777773647 10.804348755366096 1 0 -1
3119 223 11 0.115 10.868287758842625 8.456576685547114 6.189585611200279 0 0 1
4633 331 13 0.435 14.013361596344248 13.83804884542429 13.093521573131218 0 0 1
3772 270 6 -0.115 9.010005776143714 13.070042745628477 15.477930361348985 0 0 1
4295 307 11 0.115 13.969970566954855 10.596715796973449 12.149859956335481 0 0 1
4293 307 9 0.115 12.338877932961141 6.907125478722493 13.569740438999942 0 0 1
3767 270 1 -0.115 7.757006322498528 12.415801533068068 15.601636250839999 0 0 1
273 20 7 -0.585 4.033474893435889 12.677774703542282 7.981423749279665 0 0 1
3950 283 2 -0.115 10.955203248719403 9.55012968878076 15.634308973496266 0 1 0
3959 283 11 0.115 13.015492155716561 8.822352294634541 15.629192398448005 0 1 0
3588 257 4 0.065 8.300022234191403 10.12200502811855 22.339504474518023 1 0 0
3592 257 8 -0.22 8.736647966347231 10.897359338258632 20.85988822140501 1 0 0
3598 257 14 0.155 8.820504382666565 9.672236058762861 20.192949245267215 1 0 0
3953 283 5 0.15 10.874982243539026 8.849276005957442 18.38585451811347 0 1 0
3952 283 4 0.065 12.074550776590483 8.646678861767894 17.68197466252607 0 1 0
3244 232 10 0.115 11.437717978543755 10.846768824569335 22.88241278991383 0 1 0
3589 257 5 0.15 8.690313878964353 8.745409815802349 22.697166438059114 1 0 0
3949 283 1 -0.115 9.756985881390344 9.648485360013172 16.36953122842084 0 1 0
3587 257 3 -0.115 7.534920073750223 10.879778041627956 23.279480800912754 1 0 0
410 30 4 0.065 4.390772154267691 9.745910530927897 19.169782655798542 -1 1 0
414 30 8 -0.22 4.910403015051782 9.708867033840173 20.885371981434236 -1 1 0
3957 283 9 0.115 8.91641949050009 10.031559479349378 15.843432577225768 0 1 0
411 30 5 0.15 4.7228450040626715 10.90875898584861 18.476140201708525 -1 1 0
3960 283 12 0.115 8.871812105550749 9.23235207834406 18.360189661156056 0 1 0
3954 283 6 -0.115 9.682699433786283 9.25175737125588 17.710369988722654 0 1 0
420 30 14 0.155 4.466735050553563 8.477013120708449 21.13188358151023 -1 1 0
3001 215 5 0.15 13.47290187600888 7.524561939131527 22.771091265521484 0 1 0
3235 232 1 -0.115 13.416654281864323 10.851313554971979 23.490983318102522 0 1 0
419 30 13 0.435 5.806346731928516 11.442245596068886 19.90096852807101 -1 1 0
3595 257 11 0.115 7.325051265722514 11.91660029713995 23.045285350954032 1 0 0
4423 316 13 0.435 14.048055538051255 17.75009906991002 23.447064314057343 0 0 -1
413 30 7 -0.585 5.34398432193073 11.867425930398952 19.189211297245315 -1 1 0
3000 215 4 0.065 13.2403117978184 7.115745113574705 24.086774594210656 0 1 0
3003 215 7 -0.585 12.442040248988416 7.9273875949602415 21.981191146061178 0 1 0
3961 283 13 0.435 11.7338530717618 8.26907807338392 20.056195048727965 0 1 0
346 25 10 0.115 12.250239684799663 11.63539083573625 20.04428650355375 0 0 0
4548 325 12 0.115 5.407559734348592 18.370181532807848 18.730266949335366 1 0 0
3245 232 11 0.115 11.404240495074234 13.168150804601144 22.187550849510465 0 1 0
338 25 2 -0.115 13.01815379143893 11.628900551045184 19.354188765555016 0 0 0
3009 215 13 0.435 11.582282044371116 8.00261951538232 22.415187118401633 0 1 0
347 25 11 0.115 11.87644861912975 12.749565542894196 17.890268107404193 0 0 0
339 25 3 -0.115 12.783377951346836 12.188550196177586 18.066218990642952 0 0 0
3236 232 2 -0.115 12.311700227145362 11.47365883417637 22.860386993776405 0 1 0
3951 283 3 -0.115 12.1026542783613 8.983920037265337 16.273148210547802 0 1 0
2649 190 3 -0.115 10.004129942501683 14.904844617323393 25.544346036168143 0 1 0
3955 283 7 -0.585 10.90770287238908 8.546056497799286 19.73670086610391 0 1 0
3956 283 8 -0.22 13.455919503258636 7.969510629216613 18.552312198177628 0 1 0
4417 316 7 -0.585 13.520396353183898 18.46530063680977 23.6480055807106 0 0 -1
3597 257 13 0.435 9.797938116343655 8.427592059761558 21.19260598026494 1 0 0
3591 257 7 -0.585 9.532312259919355 7.967294427037659 21.98874266376135 1 0 0
2366 169 14 0.155 4.491489367134305 12.535709307531016 20.829783112438903 1 0 -1
2146 154 4 0.065 4.049506041456702 15.362992231252372 16.051844088039786 0 0 0
3585 257 1 -0.115 7.265676724726079 9.02685226068386 24.7561981708143 1 0 0
1423 102 9 0.115 10.175973409762342 13.215466864059 19.421730849560518 0 0 0
3586 257 2 -0.115 6.900549051386383 10.287705746577132 24.343391994118235 1 0 0
3243 232 9 0.115 13.236036037684793 9.87548498768727 23.9981506809719 0 1 0
2648 190 2 -0.115 9.30693519301601 13.712116917438923 25.634559371381567 0 1 0
3237 232 3 -0.115 12.308110897301187 12.821076613947799 22.537207584620624 0 1 0
815 59 3 -0.115 7.469302439344775 18.077969243574053 25.477188410931046 -1 0 0
3593 257 9 0.115 6.796532680425171 8.578028454851362 25.63297012900097 1 0 0
340 25 4 0.065 13.805834976062552 12.145510633466479 17.111753769032873 0 0 0
2656 190 10 0.115 8.234245918011236 13.683816112398926 25.481320319425752 0 1 0
3778 270 12 0.115 9.614932479730083 13.371997162407872 16.40648577094174 0 0 1
564 41 4 0.065 13.892870514744141 17.01888638350271 17.404865318304978 0 0 0
2147 154 5 0.15 4.192090247608128 14.611573666421364 17.21455523515307 0 0 0
3594 257 10 0.115 6.21757668392069 10.93977955716826 24.941764358277172 1 0 0
1427 102 13 0.435 6.335654269665042 15.425586761332859 18.435589695908412 0 0 0
3775 270 9 0.115 7.359383470867381 12.201284947127185 16.57979491118055 0 0 1
2155 154 13 0.435 5.210314357117177 13.267870790017557 18.11331537444127 0 0 0
1418 102 4 0.065 9.058685721477957 16.931944410706073 19.489803246028835 0 0 0
814 59 2 -0.115 8.436570117365333 18.561040546945172 24.638716234745353 -1 0 0
825 59 13 0.435 4.574003012955828 16.236982873750385 23.811188032711534 -1 0 0
567 41 7 -0.585 12.27758967797279 18.655283622129538 17.916114388072252 0 0 0
3596 257 12 0.115 8.374615477490956 7.322742477695652 24.279119223979055 1 0 0
4589 328 11 0.115 10.060909938978092 18.621765250092245 16.659836522493862 0 -1 1
819 59 7 -0.585 5.307162909366769 16.27632847971667 23.103346474525473 -1 0 0
568 41 8 -0.22 12.946199213741826 16.56400483948812 16.029222789161217 0 0 0
2149 154 7 -0.585 5.393566374817921 14.06928090268394 17.615376183837284 0 0 0
2660 190 14 0.155 11.219558091403197 16.981412033770454 24.84974831137992 0 1 0
818 59 6 -0.115 7.494147948984194 17.387061071641508 22.7744340391601 -1 0 0
2360 169 8 -0.22 4.608549226507196 13.447372439206546 21.820261827912944 1 0 -1
2359 169 7 -0.585 5.1689646182788564 13.356899823558228 24.803323860449428 1 0 -1
2365 169 13 0.435 5.485811682524929 13.909290128971385 24.115767314093553 1 0 -1
4542 325 6 -0.115 4.4668243987684075 18.752683134124997 18.477371972646303 1 0 0
2657 190 11 0.115 9.470898779499878 15.83943144212675 25.335662474011798 0 1 0
565 41 5 0.15 13.47043784267219 18.094296389754717 18.203823959840353 0 0 0
1424 102 10 0.115 11.794202327036633 15.046454510905619 19.979727827465894 0 0 0
1421 102 7 -0.585 6.901863521895427 16.166573888237632 18.563049491856344 0 0 0
1426 102 12 0.115 7.8577607985501015 13.809272858989523 18.619940910220485 0 0 0
816 59 4 0.065 6.393945511667258 17.35054740086008 24.873733181731733 -1 0 0
574 41 14 0.155 11.879445709956713 17.293153694656336 16.446436556773136 0 0 0
3238 232 4 0.065 13.509114299447136 13.538059615642712 22.694456099216367 0 1 0
1415 102 1 -0.115 9.830489515625167 14.207245655854589 19.45088274394068 0 0 0
817 59 5 0.15 6.399030459286459 16.962933221191705 23.547778621803175 -1 0 0
3590 257 6 -0.115 8.172521118047014 8.276592470518692 23.96414255661531 1 0 0
1428 102 14 0.155 7.820283555928173 18.5875871142826 18.40914932317319 0 0 0
1419 102 5 0.15 8.150918178473013 15.899953804892531 19.04061089870329 0 0 0
821 59 9 0.115 9.310160750946917 18.486549678593065 22.618120583988382 -1 0 0
1311 94 9 0.115 6.155090810819688 7.225034761596743 22.56878295274696 0 2 0
824 59 12 0.115 7.595714833664209 17.086570174894227 21.72480701316523 -1 0 0
813 59 1 -0.115 8.488260692856855 18.237673835308435 23.257358039096733 -1 0 0
3242 232 8 -0.22 13.64552821464946 15.189946611713552 22.215408318016163 0 1 0
1425 102 11 0.115 11.090533881323854 17.32095266418456 20.053712092138845 0 0 0
1417 102 3 -0.115 10.336835740360643 16.59900840320419 19.803307020674616 0 0 0
1422 102 8 -0.22 8.590052666117286 18.648556966367927 19.53028856931906 0 0 0
4549 325 13 0.435 4.515497467708264 17.130285454324824 20.401345216837854 1 0 0
1416 102 2 -0.115 10.759889887888656 15.265916412171197 19.73158008992376 0 0 0
418 30 12 0.115 4.803166762075515 11.915407728896813 16.510277997566956 -1 1 0
1420 102 6 -0.115 8.533336603001967 14.588132593259939 19.112294341992325 0 0 0
3004 215 8 -0.22 11.629434018148913 7.295350038525738 24.759801250339223 0 1 0
2654 190 8 -0.22 12.157019744451402 16.54851643978853 25.673193224089225 0 1 0
2156 154 14 0.155 6.396995117620517 15.041891202293623 15.678045516273158 0 0 0
4588 328 10 0.115 9.025718287703999 16.590640160554443 15.861178338350356 0 -1 1
412 30 6 -0.115 4.442305503029418 11.024866970765487 17.083736535737216 -1 1 0
67 5 11 0.115 6.674117963625394 8.342660152906953 29.681022308885716 0 0 -1
64 5 8 -0.22 8.935059368902394 9.225153205575257 28.154429955113162 0 0 -1
4165 298 7 -0.585 5.488422277795033 10.521227712324244 33.66660776793565 1 0 0
4171 298 13 0.435 6.162140011030264 10.436267150349508 34.28909117092905 1 0 0
4163 298 5 0.15 4.756564621160323 9.35551922290485 33.43350344031199 1 0 0
4576 327 12 0.115 8.453012905624163 9.367953723028522 32.93742382736028 1 1 0
2993 214 11 0.115 6.183086629763727 11.556479616211874 30.756661844072276 0 1 0
2992 214 10 0.115 7.09825574062066 11.665470138601787 28.645615121458516 0 1 0
2655 190 9 0.115 9.506649474896472 11.624128427874329 26.01546443924359 0 1 0
4570 327 6 -0.115 8.9653967917215 10.35592269289076 32.80547266929878 1 1 0
2658 190 12 0.115 12.046959850229326 11.642504596253046 26.329514658511016 0 1 0
4571 327 7 -0.585 7.962031379387251 10.939474618990447 34.91545355239419 1 1 0
4569 327 5 0.15 8.705285784553393 11.319304462874804 33.85026517177829 1 1 0
4573 327 9 0.115 9.945009466535677 10.012453828358357 30.917558412604652 1 1 0
4565 327 1 -0.115 9.71744779758789 10.768997113855868 31.645426498954695 1 1 0
4675 334 13 0.435 4.243469453935016 10.904271455906645 28.313774991711398 1 0 0
4566 327 2 -0.115 10.459766855070097 11.952293710743291 31.772226078857564 1 1 0
4574 327 10 0.115 11.188901723280495 12.1671051214458 30.986309764717074 1 1 0
2986 214 4 0.065 4.507023739454336 12.94918196162719 30.537445685231248 0 1 0
2652 190 6 -0.115 11.437991996118528 12.563394864496429 26.149797736294165 0 1 0
2984 214 2 -0.115 6.273969624615143 12.373110320556954 28.866101845791945 0 1 0
2985 214 3 -0.115 5.715971580592216 12.22923373216661 30.12106887982563 0 1 0
2647 190 1 -0.115 10.07156720145257 12.600996233595199 25.930788012203383 0 1 0
4676 334 14 0.155 4.267799334735669 8.277862250516655 26.443893664623893 1 0 0
3979 285 3 -0.115 13.303996838030221 8.64436626781536 32.36364440449476 0 1 0
1253 90 7 -0.585 9.56409040230535 17.5505234276172 35.65073436675404 0 0 0
3977 285 1 -0.115 12.952447266446105 9.301529061367635 30.00895508286479 0 1 0
826 59 14 0.155 4.786603009820998 18.11988936600461 26.305482351689026 -1 0 0
2025 145 9 0.115 11.990383405873215 15.559250686469069 31.269849566926325 0 1 0
653 47 9 0.115 10.757442638738251 9.889162657621238 35.092816961434096 0 1 0
4568 327 4 0.065 9.220422402113044 12.637554666135186 33.76233823284188 1 1 0
4567 327 3 -0.115 10.154955361720802 12.9168776019857 32.751466082699736 1 1 0
3978 285 2 -0.115 13.107728847938759 9.679699570110962 31.383155853150825 0 1 0
70 5 14 0.155 10.10557891819371 8.689673227121496 27.631925226248516 0 0 -1
2650 190 4 0.065 11.380039972999167 15.017767688893134 25.863303396426414 0 1 0
1727 124 5 0.15 7.793885425051376 16.965648197738865 30.388687313246702 0 0 0
4162 298 4 0.065 5.092689225912059 8.225257588029187 34.21031303342201 1 0 0
2031 146 1 -0.115 10.191743171184036 7.26149388184877 33.342489674143735 0 1 0
1735 124 13 0.435 6.417507750530826 17.68467791908731 31.444204509420516 0 0 0
2016 144 14 0.155 13.112727156124592 17.586966311955635 35.58569488419839 0 1 0
3986 285 10 0.115 12.86711583274237 10.654393112705609 31.73722089332248 0 1 0
59 5 3 -0.115 7.08483080136381 7.48390323561047 29.15581377649957 0 0 -1
1250 90 4 0.065 9.614749172485379 18.91630789167555 33.63988841280195 0 0 0
3981 285 5 0.15 13.80694096094123 7.106335813758301 30.496665676494903 0 1 0
3987 285 11 0.115 13.316437158218738 8.966756968768776 33.41953542922188 0 1 0
4166 298 8 -0.22 6.321625292210192 8.139719030362075 35.46572901469429 1 0 0
654 47 10 0.115 12.489727762786142 11.757889374086846 34.6114656671141 0 1 0
4577 327 13 0.435 8.048305121286907 11.503091892658498 35.71020300966586 1 1 0
3980 285 4 0.065 13.68500197637016 7.376575340425703 31.933442683339504 0 1 0
3985 285 9 0.115 12.687308448939655 10.170182127774535 29.386922696988837 0 1 0
1251 90 5 0.15 9.180968337288029 18.707703267720476 34.96133464249903 0 0 0
2039 146 9 0.115 10.845461696184397 8.136239355182632 33.43279883959276 0 1 0
60 5 4 0.065 8.305439334984438 7.61223159253218 28.4821904371926 0 0 -1
4669 334 7 -0.585 4.161145046339274 10.034576109744213 27.956443742855686 1 0 0
1724 124 2 -0.115 9.567854692648286 14.833214685651178 29.545634769369578 0 0 0
3982 285 6 -0.115 13.342299730831053 8.035737063807241 29.539820575944454 0 1 0
646 47 2 -0.115 12.73915539971502 10.911300020020985 35.14198928947715 0 1 0
4172 298 14 0.155 6.663465960816355 6.852834915206939 35.28330067676857 1 0 0
3626 259 14 0.155 5.38228641931091 18.363707893122097 33.14812018078469 1 1 0
2042 146 12 0.115 9.190647585458345 7.246651377352197 35.181511660787706 0 1 0
4578 327 14 0.155 9.160798660347794 14.92510701091916 34.08069208883278 1 1 0
1725 124 3 -0.115 9.697817488826558 16.178836344687305 29.032680046130093 0 0 0
2659 190 13 0.435 13.696749017752843 14.846333209658706 26.086663547825154 0 1 0
3620 259 8 -0.22 5.208772265515282 18.27192947610925 34.44934065939392 1 1 0
1733 124 11 0.115 10.500452512655347 16.357254147812952 28.38368172705094 0 0 0
1726 124 4 0.065 8.78919493393989 17.17312757121126 29.38736436368501 0 0 0
2651 190 5 0.15 12.1192214749229 13.833844749068554 26.07001473015101 0 1 0
823 59 11 0.115 7.381341928596854 18.39642069539437 26.478797398742913 -1 0 0
2018 145 2 -0.115 13.353888454470928 14.593493844257893 29.87434792942452 0 1 0
1732 124 10 0.115 10.211904200018836 14.065074722342189 29.328167571366144 0 0 0
2996 214 14 0.155 4.592392725244618 11.701287358756721 32.52716497663768 0 1 0
1730 124 8 -0.22 8.911317406869742 18.864710358534595 28.867683020193752 0 0 0
820 59 8 -0.22 5.030672472475935 16.890529710265927 25.919298977738755 -1 0 0
2991 214 9 0.115 5.976894446455667 13.257862315283532 26.925028171619335 0 1 0
2983 214 1 -0.115 5.6450729949511 13.207178997830457 27.914936764984294 0 1 0
2022 145 6 -0.115 13.359233742644838 14.512320011365347 32.361988569315464 0 1 0
1254 90 8 -0.22 10.553006259290203 17.658966067106622 32.86081099993214 0 0 0
2028 145 12 0.115 12.932175071541646 14.757817144585573 33.33325668429809 0 1 0
2988 214 6 -0.115 4.532483022838085 13.953898462348471 28.351576122341744 0 1 0
1260 90 14 0.155 10.511660672708082 16.81305119768392 33.92194901425138 0 0 0
3619 259 7 -0.585 4.450136332472144 16.97823479035945 31.915986080397087 1 1 0
2017 145 1 -0.115 12.781471448919456 14.864965672082674 31.101465717874962 0 1 0
1723 124 1 -0.115 8.532197317507514 14.603558595712085 30.422038777335317 0 0 0
2653 190 7 -0.585 13.448198981139855 13.962033426424021 26.280615931560764 0 1 0
4572 327 8 -0.22 8.828890044401222 13.915998020200973 34.91009785014346 1 1 0
1728 124 6 -0.115 7.666831687940078 15.626725776927904 30.862626536779768 0 0 0
1731 124 9 0.115 8.380318559138374 13.589674043903145 30.853960341647795 0 0 0
1734 124 12 0.115 6.878512530839832 15.250796444359487 31.529620855342653 0 0 0
4575 327 11 0.115 10.73390363580869 13.864401476423883 32.810655047395265 1 1 0
2026 145 10 0.115 13.006205295680171 14.92733163327646 28.899907611519602 0 1 0
1729 124 7 -0.585 6.916212421052716 17.963936231488525 30.685008374247868 0 0 0
4161 298 3 -0.115 4.3874999496705644 7.069090933034109 34.06659860198988 1 0 0
3988 285 12 0.115 13.354047872149488 7.857077610084027 28.459987034216432 0 1 0
3162 226 12 0.115 12.703614905865765 15.560748095097782 35.49401083731978 1 0 -1
2010 144 8 -0.22 13.0223782181305 18.84119765512075 35.17894329161049 0 1 0
645 47 1 -0.115 11.820868112072379 9.850502178980884 35.42061962202498 0 1 0
2040 146 10 0.115 11.038753976050362 7.095129846365911 31.264249397871865 0 1 0
2994 214 12 0.115 4.154561426496175 14.652746921066713 27.551069799897643 0 1 0
3625 259 13 0.435 4.03274186714124 16.673855443179733 31.152878737961913 1 1 0
3995 286 5 0.15 8.824726156028294 11.180302912295426 38.4388770037623 1 0 0
3994 286 4 0.065 8.639324409534277 9.85774683892594 38.86779085130996 1 0 0
3839 275 3 -0.115 10.78675932250928 7.66224990098477 42.95335215711872 1 1 -1
1465 105 9 0.115 9.109941149061683 18.551280268764728 40.6199269372043 0 0 1
3998 286 8 -0.22 9.8628693383794 8.610282152840172 38.58977653082526 1 0 0
3847 275 11 0.115 11.100884385535895 8.707138966643061 43.02441151032321 1 1 -1
4001 286 11 0.115 7.180765527450129 8.508960648112918 39.63658461556695 1 0 0
3993 286 3 -0.115 7.352520558666603 9.532228271186785 39.38063421118712 1 0 0
4000 286 10 0.115 5.40832201568813 10.228650164609597 39.92765756557845 1 0 0
3992 286 2 -0.115 6.393095052775415 10.479088415507999 39.60263839673686 1 0 0
1639 118 1 -0.115 13.375838848153938 10.635939907906264 40.66262798235608 0 0 0
3996 286 6 -0.115 7.827509491022893 12.148964226897737 38.5915667731249 1 0 0
1640 118 2 -0.115 13.420561582268189 9.478184586896013 39.8231493522384 0 0 0
1648 118 10 0.115 13.238883724481166 9.572098301551955 38.75299332348423 0 0 0
650 47 6 -0.115 12.236130076028864 8.67319521077992 36.06566597802548 0 1 0
3999 286 9 0.115 5.934108422414617 12.687659411523168 39.497199652768614 1 0 0
3991 286 1 -0.115 6.642957912210729 11.847724782568907 39.23881694017678 1 0 0
3997 286 7 -0.585 9.994481658004537 11.606842358118316 37.876586121045925 1 0 0
656 47 12 0.115 11.589509086505046 7.8020773950648135 36.23083844776232 0 1 0
4003 286 13 0.435 10.656970135537314 10.956203036019186 37.97226527597524 1 0 0
1458 105 2 -0.115 7.169495079350455 17.83956081464148 40.92951667985097 0 0 1
1647 118 9 0.115 12.921457962596834 11.568592432202585 40.4023071155919 0 0 0
3118 223 10 0.115 8.7160126757199 8.915233675837907 44.98646687295969 0 0 0
3844 275 8 -0.22 12.584859132190275 7.083164168147281 44.82826961025288 1 1 -1
3117 223 9 0.115 7.877975603288391 11.248710930136546 44.84037335092576 0 0 0
3109 223 1 -0.115 8.801269569229701 11.003486652463277 45.288620640020575 0 0 0
4642 332 8 -0.22 4.841950128752776 10.958638293897682 43.662989990507974 1 1 0
4638 332 4 0.065 4.34960673668982 12.66774217220507 43.63068428716428 1 1 0
3110 223 2 -0.115 9.260619768073735 9.713405345872948 45.54617698983232 0 0 0
4477 320 11 0.115 11.132292450869407 11.81162157641106 42.76953409869092 1 0 0
649 47 5 0.15 13.576664152315548 8.538042831099924 36.50772719154064 0 1 0
2291 164 9 0.115 8.712334723418863 17.677168738004006 44.843370152208756 1 0 -1
4004 286 14 0.155 9.305460603913875 7.639684555481281 39.29620038459995 1 0 0
2283 164 1 -0.115 8.107637212993748 18.50964336501331 44.477376880848965 1 0 -1
4002 286 12 0.115 7.9496575347343885 13.165270840728496 38.34740381956741 1 0 0
4637 332 3 -0.115 4.73263564111893 13.555891767635163 44.71414767977208 1 1 0
3846 275 10 0.115 9.071288525095945 8.043799265630257 41.5547997181858 1 1 -1
1466 105 10 0.115 7.068918007991252 18.22614353483725 41.97299938273301 0 0 1
1644 118 6 -0.115 13.789354055196736 10.55955559385676 42.041882035669836 0 0 0
651 47 7 -0.585 14.04363753453051 7.371202061741613 37.1147700757737 0 1 0
4648 332 14 0.155 4.934930492690874 10.919865228009847 44.98532129742314 1 1 0
1457 105 1 -0.115 8.317535986179013 18.0119949472386 40.209875147501315 0 0 1
4644 332 10 0.115 5.016651346565711 15.591544327473748 45.222662677004855 1 1 0
3838 275 2 -0.115 9.62698228271394 7.343144230929368 42.20496148432412 1 1 -1
3285 235 9 0.115 12.84160089056151 17.450504081097158 38.795636743930814 1 1 0
2294 164 12 0.115 6.220448827106045 17.53232928165164 44.76891822131443 1 0 -1
2288 164 6 -0.115 6.7079292272980595 18.401579426144693 44.41118266375719 1 0 -1
3120 223 12 0.115 9.275825561492166 13.18696740245862 45.54326972581472 0 0 0
2754 197 10 0.115 4.783546826598698 13.221512061682683 37.126483871965036 1 0 -1
4469 320 3 -0.115 10.611880874161983 12.749119641589322 42.705241843124725 1 0 0
3288 235 12 0.115 13.040406148355654 17.785254357204565 41.403689796508765 1 1 0