LAMMPS data file via write_data, version 29 Aug 2024, timestep = 1000000, units = real

6517 atoms
19 atom types
6517 bonds
19 bond types
12691 angles
37 angle types
19551 dihedrals
57 dihedral types

1.2101453695452946 41.062424630467774 xlo xhi
3.3081098055589564 42.06006019443056 ylo yhi
2.3180129510325607 41.76114704895963 zlo zhi

Masses

1 12.011
2 12.011
3 12.011
4 12.011
5 12.011
6 12.011
7 15.999
8 1.008
9 1.008
10 1.008
11 1.008
12 1.008
13 1.008
14 1.008
15 1.008
16 1.008
17 1.008
18 1.008
19 1.008

Pair Coeffs # lj/cut/coul/long

1 0.066 3.5
2 0.066 3.5
3 0.066 3.5
4 0.066 3.5
5 0.066 3.5
6 0.066 3.5
7 0.17 3.12
8 0.03 2.5
9 0.03 2.5
10 0.03 2.5
11 0.03 2.5
12 0.03 2.5
13 0.03 2.5
14 0.03 2.5
15 0.03 2.5
16 0.03 2.5
17 0.03 2.5
18 0.03 2.5
19 0 0

Bond Coeffs # harmonic

1 268 1.529
2 268 1.529
3 268 1.529
4 268 1.529
5 268 1.529
6 320 1.41
7 340 1.09
8 340 1.09
9 340 1.09
10 340 1.09
11 340 1.09
12 340 1.09
13 340 1.09
14 340 1.09
15 340 1.09
16 340 1.09
17 340 1.09
18 553 0.945
19 268 1.529

Angle Coeffs # harmonic

1 58.35 112.7
2 58.35 112.7
3 58.35 112.7
4 58.35 112.7
5 50 109.5
6 37.5 110.7
7 37.5 110.7
8 37.5 110.7
9 37.5 110.7
10 37.5 110.7
11 37.5 110.7
12 37.5 110.7
13 37.5 110.7
14 37.5 110.7
15 37.5 110.7
16 37.5 110.7
17 55 108.5
18 33 107.8
19 37.5 110.7
20 37.5 110.7
21 50 109.5
22 33 107.8
23 58.35 112.7
24 37.5 110.7
25 33 107.8
26 35 109.5
27 37.5 110.7
28 37.5 110.7
29 33 107.8
30 37.5 110.7
31 33 107.8
32 37.5 110.7
33 37.5 110.7
34 58.35 112.7
35 37.5 110.7
36 37.5 110.7
37 37.5 110.7

Dihedral Coeffs # opls

1 1.3 -0.05 0.2 0
2 1.3 -0.05 0.2 0
3 1.3 -0.05 0.2 0
4 -0.35601 -0.174 0.492 0
5 0 0 0.468 0
6 0 0 0.468 0
7 0 0 0.3 0
8 0 0 0.3 0
9 1.3 -0.05 0.2 0
10 0 0 0.3 0
11 0 0 0.3 0
12 1.3 -0.05 0.2 0
13 0 0 0.3 0
14 0 0 0.468 0
15 -0.35601 -0.174 0.492 0
16 0 0 0.3 0
17 0 0 0.3 0
18 0 0 0.3 0
19 0 0 0.3 0
20 0 0 0.3 0
21 0 0 0.3 0
22 0 0 0.3 0
23 0 0 0.3 0
24 0 0 0.3 0
25 0 0 0.3 0
26 0 0 0.3 0
27 0 0 0.3 0
28 0 0 0.45 0
29 0 0 0.3 0
30 0 0 0.3 0
31 0 0 0.3 0
32 0 0 0.3 0
33 0 0 0.3 0
34 0 0 0.3 0
35 0 0 0.3 0
36 0 0 0.3 0
37 0 0 0.3 0
38 0 0 0.3 0
39 0 0 0.3 0
40 0 0 0.3 0
41 0 0 0.3 0
42 0 0 0.3 0
43 1.711 -0.5 0.663 0
44 0 0 0.3 0
45 1.3 -0.05 0.2 0
46 0 0 0.3 0
47 0 0 0.3 0
48 0 0 0.3 0
49 0 0 0.3 0
50 0 0 0.3 0
51 0 0 0.3 0
52 0 0 0.468 0
53 1.711 -0.5 0.663 0
54 0 0 0.3 0
55 0 0 0.3 0
56 0 0 0.3 0
57 0 0 0.3 0

Atoms # full

6289 331 19 0.418 8.58420783295606 6.752751074847088 7.946257678377509 1 1 0
6277 331 7 -0.6830000000000001 7.900288967368311 6.166171956843032 8.23436955827995 1 1 0
6274 331 4 0.205 6.7440936214368685 6.20071464625023 7.3835408340503506 1 1 0
6275 331 5 -0.12 7.071954329127036 7.157859391458114 6.190018309735107 1 1 0
6281 331 11 0.06 6.3386701291302 8.395241677324103 9.260683162285936 1 1 0
6285 331 15 0.06 6.2847437590005715 7.093282977434361 5.4194939355914595 1 1 0
6284 331 14 0.06 6.66325171718607 5.13599569211149 7.089357726920774 1 1 0
6283 331 13 0.06 5.470201135579553 5.983788373207475 9.043585093463264 1 1 0
6272 331 2 -0.12 5.512310349268724 8.170487529513174 8.577845486802357 1 1 0
6273 331 3 -0.12 5.5565528363505665 6.64926608963383 8.155497311545062 1 1 0
6282 331 12 0.06 4.619997330934796 6.5023818674269975 7.595690085919465 1 1 0
6271 331 1 -0.12 5.749613321089184 9.032518040986968 7.391209876907747 1 1 0
6280 331 10 0.06 4.4842820701983666 8.448575483462584 8.971335369994332 1 1 0
6279 331 9 0.06 4.846320542552684 9.038480098815272 6.758748067252932 1 1 0
6294 332 5 -0.12 3.226199453366829 5.644879478360776 5.0290591687479695 1 1 0
6286 331 16 0.06 8.091493103341989 6.986839578023616 5.826565495872487 1 1 0
6276 331 6 -0.12 7.033121438672574 8.642343245122262 6.672606718461856 1 1 0
6304 332 15 0.06 3.8116123522671597 6.403123729067241 4.5623152455527975 1 1 0
293 16 8 0.06 2.294317567041297 8.458456282944487 5.507437344162946 0 0 0
6305 332 16 0.06 3.000585980103014 5.9625037761922535 6.024321464011872 1 1 0
6293 332 4 0.205 4.001730976659501 4.27664379444164 5.015652021274761 1 1 0
6303 332 14 0.06 4.931477174736086 4.418766518023601 5.496408041725168 1 1 0
243 13 15 0.06 5.638411710349365 8.35818363451401 3.827711605442103 0 0 1
6388 337 4 0.205 8.06895344818787 5.779927840058221 11.585752354031838 1 1 0
1221 65 5 -0.12 1.514404561042567 15.732949531751427 5.012498101073308 0 0 0
1046 56 1 -0.12 8.220083307201191 11.33547858331224 10.40451123787401 0 0 1
6396 337 12 0.06 6.009481995808892 6.338992484903084 11.116808672461659 1 1 0
6399 337 15 0.06 8.709604524411628 7.560267707549961 10.638094490682512 1 1 0
841 45 5 -0.12 2.130793472259982 4.161391641705603 11.53192491311171 0 1 0
6288 331 18 0.06 7.8142130588513075 8.902692007256872 7.323098509244153 1 1 0
6278 331 8 0.06 5.875209582080404 10.026262883654965 7.854223198880059 1 1 0
6398 337 14 0.06 8.353582721723118 5.250186139858263 10.66918323813853 1 1 0
263 14 16 0.06 10.694792658975079 9.46105191462663 9.9457109472736 0 0 1
6117 322 18 0.06 1.4647556320540982 15.148895533570705 10.251285332581606 1 0 1
6287 331 17 0.06 7.108894447243673 9.305667629991635 5.788480089829443 1 1 0
806 43 8 0.06 7.640529537847324 4.456715405742972 4.6863355548475685 0 1 0
294 16 9 0.06 2.56822725297745 9.290146483359631 7.065912430509169 0 0 0
815 43 17 0.06 7.244391899525314 4.070178517220135 2.4991031930303538 0 1 0
245 13 17 0.06 7.7933221582630505 9.44226403653949 3.3621231743474604 0 0 1
6295 332 6 -0.12 1.917722362470937 5.65974188753623 4.210118071206381 1 1 0
244 13 16 0.06 5.369415234554589 10.030095794115663 3.320079094769624 0 0 1
233 13 5 -0.12 5.679552439489643 9.081560300191558 2.999221899974706 0 0 1
6292 332 3 -0.12 4.150185449711685 3.773368489082361 3.5973828885819765 1 1 0
2756 146 1 -0.12 10.626166129911313 11.133670888340806 3.3563849597891244 0 1 1
804 43 6 -0.12 8.152622953800183 3.6387215551607714 2.851591227037723 0 1 0
2764 146 9 0.06 9.721993833870327 10.810603543871466 2.904652229749919 0 1 1
6291 332 2 -0.12 2.7434194173343265 3.5524290538629177 2.929382690650592 1 1 0
1057 56 12 0.06 9.962027633298318 13.23599815716672 11.438738705672359 0 0 1
266 14 19 0.418 10.778878185562007 8.11806675735541 7.139654876833655 0 0 1
392 21 12 0.06 6.641699744840605 14.521740227115636 2.485582042636142 0 0 1
234 13 6 -0.12 7.118259022265459 9.139533379870251 2.551463310965609 0 0 1
254 14 7 -0.6830000000000001 10.382787312267453 7.756871701986593 7.927784269315902 0 0 1
809 43 11 0.06 9.92706807761957 3.653867512576171 4.771235434461874 0 1 0
5604 295 18 0.06 10.909707391640826 3.550722178386578 9.02680070210959 1 0 0
6290 332 1 -0.12 2.0578225936054384 4.905080598276775 2.828329252050949 1 1 0
2763 146 8 0.06 10.321421229556725 11.929383694117481 4.041332823988986 0 1 1
852 45 16 0.06 1.6755857016465991 4.4513802906425735 10.620388328683564 0 1 0
562 30 11 0.06 1.5832534061734984 4.679036073174114 7.070175716596857 0 1 0
6387 337 3 -0.12 6.531436156198163 5.878407309087168 11.963644847889054 1 1 0
6389 337 5 -0.12 8.846594722773435 7.108147449845026 11.61284913707004 1 1 0
4272 225 16 0.06 4.394523569904336 14.532483974023897 6.3716769914487354 0 0 0
1060 56 15 0.06 9.970553842355317 12.81978417979289 8.69333132682672 0 0 1
2926 154 19 0.418 5.613301000848092 15.58421700253117 11.863530448647525 0 0 1
286 16 1 -0.12 2.0980030503580354 9.391360350018788 6.004148351756033 0 0 0
1050 56 5 -0.12 8.925730419379565 13.13408412679273 8.769516874535125 0 0 1
4264 225 8 0.06 8.531169612810434 13.972661892829537 5.831708441837367 0 0 0
6118 322 19 0.418 4.373236157441442 15.435781410725262 9.502665773071465 1 0 1
4271 225 15 0.06 5.002595922917308 15.263991790361883 4.787458386982584 0 0 0
4267 225 11 0.06 7.960148680855331 15.91947844293815 7.404704706063939 0 0 0
237 13 9 0.06 7.7350843364652215 7.155062737111084 2.906737696080904 0 0 1
394 21 14 0.06 4.40696258967845 13.857940344947702 3.251375054477858 0 0 1
1232 65 16 0.06 1.763255188092213 14.690034772633698 4.934496364552831 0 0 0
5602 295 16 0.06 11.147872396081834 4.096339762940643 11.353861564291735 1 0 0
4262 225 6 -0.12 6.419667789527481 14.163684671892224 6.048183671891181 0 0 0
1047 56 2 -0.12 8.011139696565476 12.376781533233876 11.44608195903721 0 0 1
291 16 6 -0.12 2.7871619121363276 10.494712084445759 5.103023399300476 0 0 0
1053 56 8 0.06 7.48969349008205 10.537262182457834 10.506322723461267 0 0 1
2250 119 8 0.06 10.844704254409189 15.82067951198233 4.105091823011259 0 0 1
1056 56 11 0.06 6.931240478346412 12.704625440818015 11.397568426167483 0 0 1
1054 56 9 0.06 9.159896826042766 10.82447547821783 10.426131598294504 0 0 1
261 14 14 0.06 11.095480664661444 7.070091438452282 9.819711940901705 0 0 1
1058 56 13 0.06 8.731472205174924 14.345946703141387 11.977415163557668 0 0 1
2765 146 10 0.06 10.628400505184842 9.690282320303254 4.93251694192957 0 1 1
4273 225 17 0.06 6.238857261044535 13.22859149463682 5.526869596691405 0 0 0
4275 225 19 0.418 5.935673454194052 15.626716649530428 8.28148531710302 0 0 0
1064 56 19 0.418 7.1947964228362435 15.01286807971622 10.551253295040654 0 0 1
1048 56 3 -0.12 8.966923205460404 13.577028483300442 11.19875431884692 0 0 1
1061 56 16 0.06 8.727629976576122 13.578652572256184 7.825824619007979 0 0 1
6112 322 13 0.06 4.559776916570192 12.648543061850907 11.805346823411591 1 0 1
799 43 1 -0.12 7.92226646361876 3.499033740314481 4.328443456600214 0 1 0
1063 56 18 0.06 6.888439069313756 12.24753331335315 8.994458896310507 0 0 1
303 16 18 0.06 2.3866939077559657 10.7018737163743 4.151406992943126 0 0 0
1052 56 7 -0.6830000000000001 7.492306437251214 14.678213032113142 9.70161372677752 0 0 1
6102 322 3 -0.12 3.6623506432885455 12.680403419520243 11.127914325066179 1 0 1
1059 56 14 0.06 9.536297217201072 14.954608595681245 9.551674241184656 0 0 1
6111 322 12 0.06 3.4962041775386714 11.653846578276521 10.75614371924099 1 0 1
302 16 17 0.06 3.8469619476628525 10.31418182976051 5.050465770292194 0 0 0
393 21 13 0.06 6.544301379194519 12.798735281270323 2.855207416817029 0 0 1
6103 322 4 0.205 3.909593323165209 13.656154702973609 9.949265338110703 1 0 1
6101 322 2 -0.12 2.439320868473006 13.134985569038289 11.953198437820534 1 0 1
6114 322 15 0.06 2.6399873441500956 13.021441203669406 8.427517146404584 1 0 1
290 16 5 -0.12 2.614130620166823 11.881626136666496 5.797994519258308 0 0 0
4257 225 1 -0.12 7.773666669442032 14.717954917282299 5.605616990351233 0 0 0
6113 322 14 0.06 4.817006714391556 13.247431279110637 9.44230405208274 1 0 1
1062 56 17 0.06 8.061150738281185 11.132275453329058 8.133532929995763 0 0 1
4274 225 18 0.06 6.459040860275197 13.767573468484139 7.110139854761777 0 0 0
4265 225 9 0.06 7.793279709243006 14.836891298025053 4.52110072540458 0 0 0
561 30 10 0.06 1.587136380208729 5.516101504835073 8.561886715156035 0 1 0
816 43 18 0.06 8.9194141618095 4.4082470247940595 2.5883600153916224 0 1 0
301 16 16 0.06 2.9627841554074137 12.70650682906845 5.207877602188388 0 0 0
6106 322 7 -0.6830000000000001 4.232019618612812 14.97907037694482 10.322370674746637 1 0 1
6105 322 6 -0.12 1.4305917602996057 14.119075959992287 9.844395550148013 1 0 1
1051 56 6 -0.12 7.957441744907502 11.871651278237104 9.00891502744432 0 0 1
1049 56 4 0.205 8.820776205874408 14.212616494204468 9.800373863867469 0 0 1
6115 322 16 0.06 2.8877546736492485 14.720729962503974 8.329220564517467 1 0 1
6104 322 5 -0.12 2.730712572462836 13.861406060932175 9.04419568079311 1 0 1
4261 225 5 -0.12 5.2338985676914325 15.096696768974894 5.871472703056754 0 0 0
6306 332 17 0.06 1.594756279884202 6.6953808396835 4.168950627602218 1 1 0
300 16 15 0.06 3.145880849210194 11.727804001969549 6.783495440748971 0 0 0
6301 332 12 0.06 4.76437114731424 4.545869131473606 3.0899445653458266 1 1 0
6397 337 13 0.06 6.087796351692703 4.873991022129633 12.064566881663158 1 1 0
102 6 7 -0.6830000000000001 1.3188913937202156 12.832925703586673 2.4237942017935694 0 0 1
6400 337 16 0.06 9.8445107883609 6.797309272464641 11.736576511827884 1 1 0
6296 332 7 -0.6830000000000001 3.308733779262488 3.314776448139303 5.766666135779966 1 1 0
851 45 15 0.06 3.2101555355049096 4.423241754714692 11.423717275128102 0 1 0
4258 225 2 -0.12 7.895350657439003 16.008627280018416 6.370783735612013 0 0 0
6307 332 18 0.06 1.3050765100090398 5.045155267766994 4.766405502627776 1 1 0
1231 65 15 0.06 2.37941143789835 16.089727374684685 4.470442959677664 0 0 0
5708 301 8 0.06 11.16192364857349 15.654058500620732 6.264683007242148 1 0 1
240 13 12 0.06 5.015904575217124 6.716857757687519 2.4082933522844496 0 0 1
6403 337 19 0.418 8.953426541850641 4.081963581925023 12.172339409430144 1 1 0
2361 125 5 -0.12 7.410853675426719 5.711824509751757 18.738073695248463 0 0 0
2371 125 15 0.06 7.483262303308349 6.586145235588853 19.380565885157367 0 0 0
2360 125 4 0.205 8.827870924616747 5.07430448643437 18.624276183784986 0 0 0
2372 125 16 0.06 6.79614257156397 5.002658920584288 19.365015609882718 0 0 0
2917 154 10 0.06 3.975111421585932 13.715631772372259 14.902735453523947 0 0 1
2925 154 18 0.06 7.756178717096646 13.70187909154125 13.97791415604276 0 0 1
2358 125 2 -0.12 9.181434659236409 6.436815464263116 16.461062278798142 0 0 0
2359 125 3 -0.12 9.820259880251914 6.0086204284879745 17.806191679431883 0 0 0
2367 125 11 0.06 8.983919691830344 5.639709378868529 15.747043854487027 0 0 0
985 52 16 0.06 4.0054701589129955 16.183824480652994 17.366075425093392 0 0 0
1736 92 7 -0.6830000000000001 7.510701816339115 3.5748113374329704 15.014061326976627 0 1 0
149 8 16 0.06 1.6843988827766747 6.30312331131952 19.03441973561759 0 0 0
2366 125 10 0.06 9.781660177439631 7.180719457073415 15.971644482716838 0 0 0
151 8 18 0.06 3.9787239731005415 5.814695766288365 20.10009951313348 0 0 0
2010 106 15 0.06 3.6920813626366153 8.791504824085841 13.996215652314389 0 0 0
2011 106 16 0.06 3.3114724472379424 7.452024234277755 15.075462154006502 0 0 0
2000 106 5 -0.12 3.0886067726451993 8.472705900197056 14.890114362145694 0 0 0
139 8 6 -0.12 3.102991465910187 5.21134697282731 20.382498837473946 0 0 0
2374 125 18 0.06 6.746811492634475 5.328012485579288 16.67393307516968 0 0 0
2362 125 6 -0.12 6.761890142410029 6.112733863735521 17.391276451788 0 0 0
150 8 17 0.06 2.731154810447528 5.579758988533306 21.277035749083772 0 0 0
140 8 7 -0.6830000000000001 3.251700671877368 5.04437997578792 17.306943879309713 0 0 0
2357 125 1 -0.12 7.740624715268044 7.100144982669189 16.665963367949466 0 0 0
2373 125 17 0.06 5.7966069388504975 6.607282993859895 17.564629114421425 0 0 0
2364 125 8 0.06 7.3406954915396945 7.524967844343082 15.829623049775467 0 0 0
137 8 4 0.205 2.3749666010376638 4.40776260091379 18.185607476649288 0 0 0
138 8 5 -0.12 1.9484054787797764 5.285024295777992 19.365701516215648 0 0 0
152 8 19 0.418 4.101368267810912 5.0013821295598175 17.74676380113545 0 0 0
6395 337 11 0.06 6.879808557571849 6.146037143295729 14.021615451969028 1 1 0
2365 125 9 0.06 7.934059779942473 7.961592079159865 17.307234955324017 0 0 0
1743 92 14 0.06 5.684761030015187 4.128511295767453 14.222363272571522 0 1 0
2370 125 14 0.06 9.07955392158647 4.98711660787985 19.664524344209095 0 0 0
6386 337 2 -0.12 6.303583807965776 6.701046209925199 13.258956625623354 1 1 0
839 45 3 -0.12 1.63857626474056 4.333167458220651 14.05635896307801 0 1 0
202 11 12 0.06 8.07901607740881 13.607309520487249 21.2888447453558 0 0 0
6394 337 10 0.06 5.221982485354337 6.775982600708165 13.505127742273663 1 1 0
132 7 18 0.06 10.163603980569548 12.999459669904823 15.687393831102488 0 0 1
2368 125 12 0.06 9.988421941131488 6.84502238002022 18.506358571275296 0 0 0
6391 337 7 -0.6830000000000001 8.609820112125732 4.915555173176707 12.597412477059963 1 1 0
195 11 5 -0.12 6.686946910625242 15.195465505900765 19.409435792056478 0 0 0
144 8 11 0.06 4.919221068156729 3.6337981768310055 19.059596282593073 0 0 0
6385 337 1 -0.12 6.943978269191246 8.087841299816034 13.065534665696067 1 1 0
6402 337 18 0.06 8.867243140640944 7.631104520808052 13.858807961570022 1 1 0
6390 337 6 -0.12 8.463487610985881 7.940252945872524 12.855489292097527 1 1 0
6392 337 8 0.06 6.729098423702014 8.752869621795899 13.909380885869037 1 1 0
850 45 14 0.06 1.577649508008672 5.992858576761799 12.705223006611341 0 1 0
751 40 10 0.06 5.809136274862809 6.757464198016747 21.74011251595527 0 1 0
2920 154 13 0.06 4.074682517813242 15.83158289559696 13.402280738948981 0 0 1
201 11 11 0.06 9.70537690304609 16.122554302902813 20.395192864249033 0 0 0
753 40 12 0.06 8.148958213301977 6.661790234585071 21.876443670352334 0 1 0
840 45 4 0.205 1.2847898336593688 4.912695006581199 12.625574069146909 0 1 0
125 7 11 0.06 8.10833607159072 11.9464615753528 17.40743768594374 0 0 1
2913 154 6 -0.12 7.427306960702924 14.21040674139572 14.869621898681357 0 0 1
2369 125 13 0.06 10.750115489453878 5.446114060188407 17.568842974090536 0 0 0
6401 337 17 0.06 8.802117645809012 8.954855551888503 12.614786506993557 1 1 0
204 11 14 0.06 7.662399440234566 13.310739295317282 18.93088607741061 0 0 0
848 45 12 0.06 2.6250710986810235 4.770444966885574 14.287470842496772 0 1 0
2224 118 1 -0.12 10.361156198951189 8.955951739743046 21.652802354713202 0 0 0
2911 154 4 0.205 6.263963307731836 16.039719721599933 13.538640793502326 0 0 1
123 7 9 0.06 9.301730205732936 10.064719262911652 15.31352162546818 0 0 1
1748 92 19 0.418 8.037600804100755 4.0247586814700504 14.349857707053834 0 1 0
206 11 16 0.06 6.018518816319561 15.300244752291478 18.52616085024965 0 0 0
311 17 7 -0.6830000000000001 3.5172550609353928 13.629262012394214 20.347492749715432 0 0 0
2240 118 17 0.06 9.141092503577612 10.651852936992517 21.79381978932279 0 0 0
2910 154 3 -0.12 4.883897159193397 15.614704879963208 14.197154557404767 0 0 1
313 17 9 0.06 5.285155273556754 10.093270374077639 21.921734196283676 0 0 0
2912 154 5 -0.12 7.440158327015862 15.69851473267257 14.482408018294189 0 0 1
2007 106 12 0.06 1.4329589020089808 10.22545472645703 13.418778356222694 0 0 0
305 17 1 -0.12 5.655672228740155 11.110709154892453 21.71927215960784 0 0 0
1999 106 4 0.205 1.5858733260636617 8.619317932077614 14.707772470331351 0 0 0
2012 106 17 0.06 4.65025328017223 9.27399900134731 16.214616843000776 0 0 0
2001 106 6 -0.12 3.5991095007014744 9.426029545309646 15.976467428192901 0 0 0
2013 106 18 0.06 3.0091853034616793 9.136369493563674 16.905517548484582 0 0 0
983 52 14 0.06 2.4202539055221477 14.77154428873886 15.91786650411999 0 0 0
197 11 7 -0.6830000000000001 8.747028994128229 14.89507325809719 18.249065486723275 0 0 0
2375 125 19 0.418 8.524507400303989 3.9596408609409943 17.010100775627386 0 0 0
2363 125 7 -0.6830000000000001 8.70557117244151 3.829544209532518 17.952778228013422 0 0 0
2232 118 9 0.06 10.791859008109745 9.087755178252761 20.60962572408783 0 0 0
2231 118 8 0.06 9.51675322650198 8.291334662313826 21.61346758518031 0 0 0
317 17 13 0.06 3.752706823470182 11.370145383613606 18.80545304611924 0 0 0
988 52 19 0.418 3.0006866914147476 13.966485434068753 18.616173578472885 0 0 0
2006 106 11 0.06 1.393514717750868 10.982709467538875 16.299530321909955 0 0 0
318 17 14 0.06 2.1582128870946815 12.180359157692681 20.506051218738666 0 0 0
2005 106 10 0.06 1.7251785517402458 12.15878357829926 14.983220162587942 0 0 0
118 7 4 0.205 10.772642581537113 11.239283324070328 18.12563251007642 0 0 1
209 11 19 0.418 9.493971099585393 14.317124709392633 18.140115913366493 0 0 0
2924 154 17 0.06 8.112108937483164 13.962097507224922 15.640566812697035 0 0 1
2919 154 12 0.06 4.6640569748396805 16.220852554932854 15.080930503902117 0 0 1
2916 154 9 0.06 5.964902968661282 14.086460975944648 16.405793021277773 0 0 1
2918 154 11 0.06 5.0559964084993725 13.596818753462287 13.559185925158523 0 0 1
127 7 13 0.06 9.133102651969917 10.267944015509686 19.14497999933878 0 0 1
134 8 1 -0.12 3.6576054119626358 3.7767808269804823 20.741622648301735 0 0 0
115 7 1 -0.12 9.01027927199025 11.063751377681195 15.687336306485902 0 0 1
2004 106 9 0.06 3.9755231314770705 11.080489046428841 14.652670968781413 0 0 0
2003 106 8 0.06 3.734503092533407 11.555645298301766 16.29585922782985 0 0 0
987 52 18 0.06 3.0706116893462454 15.994725616347978 19.654469015831456 0 0 0
316 17 12 0.06 3.7055289081890104 10.266466979184779 20.24043951696214 0 0 0
976 52 7 -0.6830000000000001 2.7432686237615194 13.704933764301277 17.670726569537777 0 0 0
314 17 10 0.06 6.0015785375263 10.633681940277437 19.626411385662674 0 0 0
307 17 3 -0.12 3.9333709659725558 11.297545597779312 19.90758754853393 0 0 0
126 7 12 0.06 9.714268927278617 9.353364598393076 17.817807652097045 0 0 1
1997 106 2 -0.12 1.854258189648689 11.110009427006645 15.300870241487019 0 0 0
1996 106 1 -0.12 3.3644413579360077 10.846445838313214 15.512600249037025 0 0 0
205 11 15 0.06 6.150274997856477 14.735120120496706 20.230314973268232 0 0 0
121 7 7 -0.6830000000000001 10.524839920809724 12.436239058940764 18.80246757606892 0 0 1
2915 154 8 0.06 6.134909557843397 12.659190761943023 15.495572902681811 0 0 1
194 11 4 0.205 7.881097007828849 14.328525130266744 19.28635244194853 0 0 0
124 7 10 0.06 7.50673306316466 10.345085908946864 17.0173265561384 0 0 1
2914 154 7 -0.6830000000000001 6.449197059503602 15.44001091016775 12.284990823974935 0 0 1
323 17 19 0.418 4.392301834397054 13.736119264623465 20.666183824818606 0 0 0
308 17 4 0.205 3.1968470118657186 12.300389607684878 20.742874234408387 0 0 0
120 7 6 -0.12 10.292298031960708 11.924155875604102 15.620223764664695 0 0 1
117 7 3 -0.12 9.488865228779995 10.381835658757227 18.16390125870621 0 0 1
3109 164 12 0.06 10.852357304830916 15.790815207576658 16.707182631739073 0 0 0
122 7 8 0.06 8.251714506039939 11.418782938429592 15.017857750358022 0 0 1
306 17 2 -0.12 5.441102842743738 11.384162821254609 20.200844938837502 0 0 0
315 17 11 0.06 5.863622419010763 12.359259677668334 19.97362584433549 0 0 0
193 11 3 -0.12 8.63265878118023 14.249771561973175 20.574775373996612 0 0 0
2909 154 2 -0.12 4.921398471662039 14.106297070141952 14.517183505618902 0 0 1
203 11 13 0.06 9.546730990666406 13.622132130132028 20.541675228894572 0 0 0
116 7 2 -0.12 8.453857051736252 10.934803731612785 17.105170738836286 0 0 1
2908 154 1 -0.12 6.116634568084469 13.675010939164373 15.370832314198633 0 0 1
973 52 4 0.205 2.211030775635211 14.814934183867004 16.97434157632635 0 0 0
192 11 2 -0.12 9.012456304228884 15.676312011431754 21.086074777926182 0 0 0
6109 322 10 0.06 2.2774507161512876 12.54468382613523 12.858380172678563 1 0 1
141 8 8 0.06 4.51975689931837 3.754911680216896 21.423510185787173 0 0 0
2923 154 16 0.06 8.350629456283112 16.029379852443626 14.00692282184881 0 0 1
131 7 17 0.06 10.67723437458323 11.778192456504177 14.646610395538946 0 0 1
147 8 14 0.06 1.4956813130099154 4.4919651208038704 17.48011515153489 0 0 0
974 52 5 -0.12 2.913251162179469 16.115990153213573 17.418441431996534 0 0 0
1055 56 10 0.06 8.201306088433649 11.946422953650613 12.384344178632702 0 0 1
6110 322 11 0.06 2.62060296118077 14.110241001016528 12.316875241659021 1 0 1
2009 106 14 0.06 1.2921427035277029 7.963559572840592 13.923004920383331 0 0 0
6393 337 9 0.06 6.414084122704227 8.628109372583598 12.242177521458474 1 1 0
312 17 8 0.06 6.781121982591846 11.078878627596335 21.897191852055567 0 0 0
200 11 10 0.06 9.525063640410544 15.630487566215844 22.031452581910248 0 0 0
1127 60 6 -0.12 6.727340582334671 8.37693799493654 30.92778908732953 0 0 0
747 40 6 -0.12 6.758245190946437 7.881686233744361 24.88902877211583 0 1 0
759 40 18 0.06 6.266535834089254 7.093867440422672 25.43720128842335 0 1 0
743 40 2 -0.12 6.278165122289441 6.603927898550724 22.779960865595257 0 1 0
1122 60 1 -0.12 6.078120373137244 7.700678241971018 29.657731551888897 0 0 0
752 40 11 0.06 5.741478887795196 5.966755949700953 23.431810603072844 0 1 0
748 40 7 -0.6830000000000001 7.904645484209032 5.042958716671176 24.843026774973254 0 1 0
1130 60 9 0.06 5.095959477690567 7.279106897634593 29.941668060167196 0 0 0
745 40 4 0.205 8.493989232817707 6.034218870643725 24.038717525662502 0 1 0
1454 77 10 0.06 5.4706550175608255 4.526509241769495 28.126383525109613 0 0 0
746 40 5 -0.12 8.216311254920257 7.420711194987531 24.840741761101416 0 1 0
56 3 18 0.06 1.7633680663152629 15.24255951797246 27.020028163595928 0 0 0
757 40 16 0.06 8.609655542000045 7.402935218762803 25.90840650827599 0 1 0
756 40 15 0.06 8.900680482597112 8.070946860022175 24.266603662018298 0 1 0
1455 77 11 0.06 5.783518849483663 4.924653027846176 26.413662595784903 0 0 0
755 40 14 0.06 9.492855773911899 5.867895448575457 23.85500288470224 0 1 0
1709 90 18 0.06 3.3611753524857892 5.013441641601121 31.162741781074164 0 1 0
742 40 1 -0.12 6.261920316431514 8.00530528265981 23.463889131624903 0 1 0
1814 96 9 0.06 9.837211513320621 8.284734056127546 31.74439665688615 0 1 0
744 40 3 -0.12 7.675452320261879 6.072283706839441 22.722728828116367 0 1 0
73 4 16 0.06 9.07995205936345 4.188353750258821 29.28918062851378 0 0 0
1692 90 1 -0.12 5.328132803350874 3.9743775525844893 30.981292026790317 0 1 0
758 40 17 0.06 6.638813845427104 8.89683173759251 25.343265395401787 0 1 0
1815 96 10 0.06 10.453557638531565 5.726687039161746 31.45843168463868 0 1 0
1452 77 8 0.06 3.849764950075428 6.111768663519515 27.150396137466267 0 0 0
1462 77 18 0.06 4.113405011045459 5.462541733885865 24.69651310388957 0 0 0
754 40 13 0.06 7.547645536612711 5.070058778981238 22.420147290190855 0 1 0
1104 59 2 -0.12 1.6196590088474643 9.384852523489005 31.554845259743022 0 0 0
2234 118 11 0.06 10.913319501897094 7.781140987062301 23.41204072379749 0 0 0
1450 77 6 -0.12 3.3589709386899127 5.014785492538471 25.333041166853857 0 0 0
6473 341 13 0.06 9.203789885403241 7.963244871634681 28.534314333808197 1 1 0
749 40 8 0.06 5.274926769555649 8.39057672234205 23.46279856706025 0 1 0
761 41 1 -0.12 10.936347830034068 12.309369094109078 30.499174353301647 0 0 0
1129 60 8 0.06 6.697516465425819 6.878422887753125 29.188183431204454 0 0 0
1445 77 1 -0.12 3.6895680985650676 5.0896831493687795 26.85611039639705 0 0 0
1112 59 10 0.06 2.4441069819397434 10.085978070859559 31.26750523141875 0 0 0
1114 59 12 0.06 1.591183706900671 8.162336089624272 29.719919548933483 0 0 0
5753 303 15 0.06 2.7911236938165285 8.370001316946702 27.299791016021604 1 0 0
1139 60 18 0.06 7.677886836443668 8.69906574882243 30.503645493701278 0 0 0
5747 303 9 0.06 3.18736411650989 7.941712026515148 24.669439297853565 1 0 0
1131 60 10 0.06 5.360559023663353 8.336332478682568 27.735736036382704 0 0 0
6467 341 7 -0.6830000000000001 10.32965123947464 9.417486436302818 26.444864109144593 1 1 0
5739 303 1 -0.12 2.6562065769920817 8.891408950576803 24.501941393014196 1 0 0
6471 341 11 0.06 10.529854343087768 6.748401830519317 26.90343424758126 1 1 0
6470 341 10 0.06 10.45842985972502 5.9661863918788285 28.480908713189613 1 1 0
1132 60 11 0.06 6.697279181389168 9.149743402921711 28.04220621726687 0 0 0
1123 60 2 -0.12 5.8433419732118 8.801896552681718 28.541255203783724 0 0 0
1460 77 16 0.06 3.074392418787368 3.6334180199926864 23.752809569608687 0 0 0
5755 303 17 0.06 4.118205848679079 9.840781280272145 25.965207427575386 1 0 0
5744 303 6 -0.12 3.0718219512552363 9.74354687422042 25.73607774238038 1 0 0
64 4 7 -0.6830000000000001 9.651399111963281 3.7854937762277108 26.834573333852425 0 0 0
1126 60 5 -0.12 5.951138583862201 9.617298329062598 31.413499758163265 0 0 0
5754 303 16 0.06 2.4196083876872554 9.996368059200897 27.65773291162537 1 0 0
5743 303 5 -0.12 2.230336076207663 9.188784098330789 26.935656126185986 1 0 0
1124 60 3 -0.12 4.96866840364264 10.009658758938954 29.058897133368326 0 0 0
1133 60 12 0.06 4.000943905394525 9.550110875020483 29.297788588387217 0 0 0
760 40 19 0.418 8.593067246165038 4.824958605476638 25.53124821779689 0 1 0
750 40 9 0.06 6.9240598370490405 8.644534594000707 22.798223267872824 0 1 0
1446 77 2 -0.12 5.066590865377847 4.4639577473188945 27.08555557569874 0 0 0
1699 90 8 0.06 5.567269226730966 4.568848143889902 30.06742100997098 0 1 0
1453 77 9 0.06 2.936767107761888 4.6817765048528175 27.47822061120448 0 0 0
779 41 19 0.418 7.2329034442886435 13.813518430423722 31.81572712641779 0 0 0
44 3 6 -0.12 1.275353169304093 15.426001198475001 27.988388362633028 0 0 0
5623 296 18 0.06 11.059410254081138 3.838185288810397 24.11600339356347 1 0 0
2241 118 18 0.06 9.64504773279669 9.913242812961293 23.343802663510317 0 0 0
46 3 8 0.06 2.9286072963515792 15.886263884718902 29.29982908381207 0 0 0
1461 77 17 0.06 2.4523492759974537 5.566555554060643 25.100124005170336 0 0 0
6462 341 2 -0.12 10.832020653046472 6.841631554717361 27.90189522142053 1 1 0
1463 77 19 0.418 5.912144555451746 3.881494437296999 24.528045905598646 0 0 0
310 17 6 -0.12 4.889877127772264 12.098641709865579 22.682828923518617 0 0 0
6463 341 3 -0.12 10.290056495645821 8.154599910871852 28.530739790972845 1 1 0
76 4 19 0.418 10.468565813288615 4.010385625878824 27.23526862131227 0 0 0
6464 341 4 0.205 10.946277208788661 9.44906589613246 27.76603050933146 1 1 0
1697 90 6 -0.12 4.241887543482228 4.675741472368109 31.792714831308412 0 1 0
1422 75 16 0.06 8.086188444422064 16.065305706553936 29.349207772762632 0 0 0
1803 95 17 0.06 9.55441068995282 13.419836313813434 23.93855126106506 0 1 0
5746 303 8 0.06 3.080552503581589 9.368529932064009 23.692212073201684 1 0 0
770 41 10 0.06 10.633799492770892 10.37930328634048 31.220557055066415 0 0 0
6409 338 6 -0.12 4.2722062041973 15.477645325971274 24.779889117553495 1 0 0
6411 338 8 0.06 4.7388899110599825 15.851460008383558 26.815503379917633 1 0 0
1794 95 8 0.06 9.527308349200398 15.318403253922106 25.487433416787013 0 1 0
1449 77 5 -0.12 3.186054337250364 3.622401344805326 24.838006414619493 0 0 0
5756 303 18 0.06 2.751894681657174 10.723056977073632 25.56645469693685 1 0 0
766 41 6 -0.12 10.185952084210097 13.627580335908807 30.497904029696958 0 0 0
6419 338 16 0.06 3.436356564017463 15.691468125034385 22.751619620003403 1 0 0
6422 338 19 0.418 1.45399472913876 16.01912732546034 23.968871550607872 1 0 0
1796 95 10 0.06 7.710095249741308 15.586268666691776 27.059211313226292 0 1 0
322 17 18 0.06 5.332067355332355 13.043630553902496 22.42192699317477 0 0 0