LAMMPS data file via write_data, version 29 Sep 2021, timestep = 1000000

5103 atoms
7 atom types
4374 bonds
6 bond types
5832 angles
8 angle types
4374 dihedrals
6 dihedral types
1458 impropers
2 improper types

3.297012272433048 39.702987727568924 xlo xhi
3.297012272433048 39.702987727568924 ylo yhi
3.297012272433048 39.702987727568924 zlo zhi

Masses

1 15.999
2 12.011
3 15.999
4 1.008
5 1.008
6 1.008
7 1.008

Pair Coeffs # lj/cut/coul/long/omp

1 0.17 3.07
2 0.066 3.5
3 0.17 3.07
4 0 0
5 0.03 2.5
6 0.03 2.5
7 0 0

Bond Coeffs # harmonic/omp

1 320 1.41
2 320 1.41
3 553 0.945
4 340 1.09
5 340 1.09
6 553 0.945

Angle Coeffs # harmonic/omp

1 54.34 109.88
2 55 108.5
3 35 109.5
4 35 109.5
5 55 108.5
6 33 107.8
7 35 109.5
8 35 109.5

Dihedral Coeffs # opls/omp

1 -1.257 -1.806 0.003 0
2 -1.257 -1.806 0.003 0
3 0 0 0.45 0
4 0 0 0.45 0
5 0 0 0.45 0
6 0 0 0.45 0

Improper Coeffs # cvff/omp

1 0 -1 2
2 0 -1 2

Atoms # full

3979 569 3 -0.5742 7.599927492933692 8.336432187582144 4.138793299483235 1 -1 0
3584 512 7 0.4256 6.573248926892029 4.526454906391462 4.099406558853949 1 0 -1
2341 335 3 -0.5742 3.83669512048021 10.059982932131168 4.1729436173420575 2 1 -1
953 137 1 -0.5742 5.354284460156956 11.314466927989635 10.653707591357685 0 0 0
4829 690 6 0.0488 4.307826419277173 7.6104108375891295 8.483533608754461 1 1 -1
957 137 5 0.0488 5.857593637173052 9.744351516522116 11.821403673450043 0 0 0
1689 242 2 0.1996 3.6488609765820654 6.4465146035007805 3.794092605020326 1 0 0
2344 335 6 0.0488 4.516399390696142 10.191359335470299 6.141811541421584 2 1 -1
2317 331 7 0.4256 5.094211866876956 5.738917016548777 9.82639996662646 0 1 0
4824 690 1 -0.5742 5.060953883394456 5.918519730102359 7.933119814026559 1 1 -1
2315 331 5 0.0488 5.083072181922619 7.475854543761824 10.902142725487836 0 1 0
2313 331 3 -0.5742 5.520025530581256 5.586795015774749 10.692231092013227 0 1 0
93 14 2 0.1996 6.885787191830769 8.685125684739706 7.266449036521486 0 0 0
955 137 3 -0.5742 7.379923420470868 10.105969243610772 10.484275616141408 0 0 0
313 45 5 0.0488 6.996560881417189 3.3303400088836708 8.556776687644694 0 2 2
97 14 6 0.0488 6.0350358161720585 9.178847280449215 7.6524276523663355 0 0 0
2345 335 7 0.4256 4.7622514203254 10.068983657779581 4.0041914211837675 2 1 -1
954 137 2 0.1996 6.360655473159316 10.577835140517575 11.337256865174602 0 0 0
98 14 7 0.4256 6.863009332255965 7.753462794542522 5.5949700008827525 0 0 0
4123 589 7 0.4256 4.807340143684144 4.219776218709648 11.558978264954476 1 1 -1
4825 690 2 0.1996 3.912581642938194 6.70601935792937 8.11083083231361 1 1 -1
4827 690 4 0.4256 5.706343551090658 6.498186836310527 7.516542263225218 1 1 -1
94 14 3 -0.5742 6.547985256381743 7.575938513930906 6.482573851901881 0 0 0
956 137 4 0.4256 4.478712870589186 11.105599441840447 11.009553718524343 0 0 0
2312 331 2 0.1996 5.179534501377647 6.64442840235402 11.546954108060616 0 1 0
3977 569 1 -0.5742 6.506107715694341 10.259632454578409 3.397380328019832 1 -1 0
3980 569 4 0.4256 6.644788211823997 10.860417233334395 4.114225893388109 1 -1 0
2340 335 2 0.1996 3.5777118722724515 10.02205970003868 5.600889280899519 2 1 -1
95 14 4 0.4256 7.626333701987027 8.718851414316674 9.124120963711087 0 0 0
1700 243 6 0.0488 3.7091295193099922 12.066790660573414 8.994976652842876 0 1 1
2316 331 6 0.0488 4.177065616842911 6.557104403292095 11.894690896476813 0 1 0
3580 512 3 -0.5742 7.123591376938881 5.26994008549438 3.9127314983024504 1 0 -1
4828 690 5 0.0488 3.4883177079695593 6.980953113198602 7.1350546098841185 1 1 -1
2260 323 6 0.0488 7.460312111471438 4.620574339645327 6.6094223837183925 0 1 0
1692 242 5 0.0488 4.1033166689222265 6.68583321012758 4.7588422963565025 1 0 0
958 137 6 0.0488 6.654600744515077 11.22951489219538 12.17165863598052 0 0 0
3983 569 7 0.4256 7.753593747476682 7.620075265940946 3.532464398259651 1 -1 0
4119 589 3 -0.5742 4.418498052849526 3.6387409886862105 12.220028152662236 1 1 -1
2065 295 7 0.4256 3.581602402238471 4.266548481670365 8.088183887217108 1 1 0
92 14 1 -0.5742 7.590289868459744 8.163161706374774 8.378489145706537 0 0 0
96 14 5 0.0488 7.526277566798374 9.435128306727478 6.791545265902251 0 0 0
2061 295 3 -0.5742 3.7162524308192504 3.3445939398705526 7.889741153771213 1 1 0
2343 335 5 0.0488 3.315281852221178 9.05386018803545 5.911529942423561 2 1 -1
1809 259 3 -0.5742 3.7349707449506764 8.539899965871223 15.778678466173632 1 0 1
599 86 4 0.4256 3.731933311498171 10.614519765784259 13.761360146162698 1 -1 1
596 86 1 -0.5742 3.40391718324674 10.937091220545781 12.909612911553934 1 -1 1
964 138 5 0.0488 6.847364108780062 12.040497599594921 19.341453173366443 0 1 -1
1427 204 6 0.0488 6.596436759009006 4.581169776900782 19.331709410720947 1 1 0
2649 379 3 -0.5742 4.762328564256354 6.241023804245817 15.09784967432576 1 0 -1
2651 379 5 0.0488 4.331463616895403 4.3158517773024085 15.812139216822148 1 0 -1
5098 729 2 0.1996 6.953187195654351 8.94652279709809 19.86001333709262 1 1 1
1776 254 5 0.0488 3.652112491687356 7.4043136667716185 20.917689739620673 1 1 0
5097 729 1 -0.5742 7.294210488089041 8.412612417513138 18.623586879628235 1 1 1
1425 204 4 0.4256 5.310741720401971 5.8992493540424515 17.24977946041143 1 1 0
1423 204 2 0.1996 6.029036220413694 4.596502187279512 18.414329272528878 1 1 0
2653 379 7 0.4256 4.356737098189109 7.0950684060586084 15.218699173435885 1 0 -1
1426 204 5 0.0488 4.925083822380189 4.342943798265184 18.591977592936605 1 1 0
2017 289 1 -0.5742 7.832971125367108 9.713291936977873 16.248255503795512 0 0 -1
1424 204 3 -0.5742 6.498031535446782 3.7407429605774314 17.341464558619666 1 1 0
1811 259 5 0.0488 4.407237048155837 10.468471276957771 16.50338015161965 1 0 1
2650 379 4 0.4256 3.7202400126273125 4.27500481158612 13.610767370530025 1 0 -1
5102 729 6 0.0488 6.5885571174176025 9.948691626342729 19.762027054179487 1 1 1
1428 204 7 0.4256 7.3429746583610225 3.4208703792585684 17.70306341528467 1 1 0
1808 259 2 0.1996 4.741017882343579 9.469646621512704 16.146485932520374 1 0 1
5100 729 4 0.4256 7.1073414689281424 7.41588971503618 18.722038461133035 1 1 1
5101 729 5 0.0488 6.161487610894047 8.39958242613691 20.407394358297097 1 1 1
1812 259 6 0.0488 5.275922462660695 8.9610405927964 16.910991060317688 1 0 1
4115 588 6 0.0488 4.007176790994048 10.960491552137139 18.965582908817595 1 1 1
1810 259 4 0.4256 6.245274839418 9.717494823796411 14.962734613289525 1 0 1
1807 259 1 -0.5742 5.311998891599452 9.825524906521872 14.913760088774568 1 0 1
1422 204 1 -0.5742 5.939270434896439 5.95619548239868 17.950718034660387 1 1 0
2314 331 4 0.4256 5.724337161161479 6.422440765207108 13.469657507875997 0 1 0
2311 331 1 -0.5742 6.150436355826615 6.647224851081757 12.603512532119293 0 1 0
2648 379 2 0.1996 3.81034747670234 5.201225749423273 15.369610665045649 1 0 -1
2020 289 4 0.4256 7.761758621211759 9.36134724996377 17.156891003290795 0 0 -1
936 134 5 0.0488 7.566736420016897 5.183532416502644 15.236480942911145 -1 1 0
2466 353 2 0.1996 3.445030669145819 9.703546455006936 26.054139620913343 0 0 0
782 112 5 0.0488 5.292094712757127 6.34963838253624 27.568793648445265 1 -1 0
1039 149 3 -0.5742 4.167958186030907 3.903053779694747 27.160402126026348 0 1 1
2716 388 7 0.4256 4.38669390036733 11.441923255130074 21.79984675014775 0 1 -1
781 112 4 0.4256 5.568629843412487 8.33147017988076 26.746478826047525 1 -1 0
324 47 2 0.1996 7.179686812971381 9.651545292350914 23.69420511584148 0 2 -1
1666 238 7 0.4256 4.271474438384693 5.405263233814441 24.924321865343522 0 -1 0
3012 431 2 0.1996 7.548254112704294 5.7947778283912665 21.94491760797131 0 0 0
2428 347 6 0.0488 5.567754543230661 9.427206069444933 29.145625649525407 0 -1 0
3011 431 1 -0.5742 6.967940457111695 4.540467706007936 22.191959789188125 0 0 0
1662 238 3 -0.5742 3.866007933613354 5.441891837171477 24.039843386971025 0 -1 0
2424 347 2 0.1996 5.499587116481749 10.25874079824942 29.82120127481919 0 -1 0
2679 383 5 0.0488 5.300804759054818 4.676428007264697 30.156607239367016 1 0 0
780 112 3 -0.5742 6.081719790764925 5.95878780482967 25.654205724526246 1 -1 0
325 47 3 -0.5742 6.3120064848947175 8.561310097664926 23.428006809797967 0 2 -1
323 47 1 -0.5742 7.320757334890768 10.590274227976385 22.647248455652598 0 2 -1
2712 388 3 -0.5742 5.023212271082312 11.839519429249545 22.3514238354987 0 1 -1
783 112 6 0.0488 6.936553153498711 5.899223421095169 27.56909892128893 1 -1 0
2426 347 4 0.4256 7.05999202412657 11.313873446913494 30.42921162021784 0 -1 0
327 47 5 0.0488 6.89970291209288 10.187020060355351 24.58935337517111 0 2 -1
2469 353 5 0.0488 4.046980542554324 10.508020249427123 25.720660585742074 0 0 0
778 112 1 -0.5742 6.417035962943035 7.901101438077266 27.0846792113976 1 -1 0
2471 353 7 0.4256 4.188906519454834 8.30258490959329 24.975617126495766 0 0 0
2423 347 1 -0.5742 6.540922872161012 11.121668920261943 29.644217511041337 0 -1 0
2467 353 3 -0.5742 4.261843330804439 8.568588406520686 25.871803260093788 0 0 0
3013 431 3 -0.5742 7.830448227862326 6.30592955238639 23.222859428945338 0 0 0
2425 347 3 -0.5742 4.281936293373927 11.00328982308681 29.43940228732714 0 -1 0
3014 431 4 0.4256 6.084670569300027 4.572708588740708 22.457069987134755 0 0 0
1043 149 7 0.4256 4.911636150719742 3.614703923558683 27.705867084538035 0 1 1
329 47 7 0.4256 6.957294778920693 7.822873110233468 23.400834322230153 0 2 -1
779 112 2 0.1996 6.184458318973192 6.482355480700318 26.99599575147671 1 -1 0
784 112 7 0.4256 6.9795858308430425 5.912305253092733 25.19215497032838 1 -1 0
4654 665 6 0.0488 7.602207045513824 11.970067591355832 26.839169914033103 1 0 0
326 47 4 0.4256 6.498787637944568 11.1691999888704 22.622474662922148 0 2 -1
2429 347 7 0.4256 3.9360034039803447 10.678895470702322 28.613207751267765 0 -1 0
3015 431 5 0.0488 6.848523101784684 6.526491405953246 21.52512599842733 0 0 0
2427 347 5 0.0488 5.542003859560426 9.808509887917873 30.860925856394175 0 -1 0
179 26 4 0.4256 6.76733264032522 5.478203720109411 32.890825445179196 0 1 0
3399 486 4 0.4256 4.861297309134859 5.086063054826482 37.371846058109995 2 1 1
3583 512 6 0.0488 7.480697458257108 4.3756904820084355 38.491561400438684 1 0 -2
3856 551 6 0.0488 6.62742597671004 11.406764635072076 37.082580441180816 1 0 -1
2677 383 3 -0.5742 6.585062517912734 3.7489697507802267 31.486905120800905 1 0 0
3978 569 2 0.1996 7.688631197506706 9.465904160539235 39.67591552750184 1 -1 -1
4068 582 1 -0.5742 5.6662929395394555 8.615047763800288 34.587093973554595 1 1 0
2756 394 5 0.0488 3.310871760303659 11.922952217138718 37.736780638782406 0 1 -1
5079 726 4 0.4256 7.621947513290408 4.935741703390257 35.64514759391156 1 1 -1
4073 582 6 0.0488 4.248774655849776 8.263469145628964 35.951692408815944 1 1 0
3400 486 5 0.0488 4.9484940437494265 5.662441869657666 34.95972846506785 2 1 1
1690 242 3 -0.5742 4.547425396325243 6.713467233444589 39.22030273888647 1 0 -1
4070 582 3 -0.5742 4.622246614179583 10.204800252966454 35.900090221000944 1 1 0
3316 474 5 0.0488 3.5004247515135978 7.059447979017416 33.58015478864726 2 0 1
176 26 1 -0.5742 6.978435157947445 6.379410612868766 33.18070613561279 0 1 0
177 26 2 0.1996 7.757761444573013 6.830493174228818 32.1517230390519 0 1 0
2678 383 4 0.4256 3.4673723556811757 4.3652333813777515 31.47761885578522 1 0 0
3932 562 5 0.0488 7.025062373209799 12.317724420243021 33.11835545089982 0 0 0
178 26 3 -0.5742 7.153820919971835 7.996939558176166 31.66326478572444 0 1 0
3852 551 2 0.1996 7.5562541463162045 11.519117001078463 36.5777404566212 1 0 -1
3398 486 3 -0.5742 5.5303045368332855 3.7240716855591343 34.77447248822462 2 1 1
3397 486 2 0.1996 4.745328341761202 4.68920397709846 35.48274821824864 2 1 1
3581 512 4 0.4256 7.642287593484423 6.464230068913752 37.55159323272329 1 0 -2
4074 582 7 0.4256 3.9118558947571427 10.279512831451015 35.26509373459989 1 1 0
3578 512 1 -0.5742 7.511692617994269 6.468795605028514 38.46861161654997 1 0 -2
2675 383 1 -0.5742 4.380701894207672 4.333958252725047 31.874156341982875 1 0 0
4069 582 2 0.1996 5.082660604740809 8.857334439334014 35.85412992155925 1 1 0
4072 582 5 0.0488 5.800472851691605 8.616789160225798 36.67685734562645 1 1 0
3396 486 1 -0.5742 5.370105568515147 4.669793500116732 36.71583278243552 2 1 1
3854 551 4 0.4256 6.613494845162434 10.328147135907056 35.33621336707592 1 0 -1
4071 582 4 0.4256 5.990936870771282 7.74101166571363 34.48733315947666 1 1 0
3401 486 6 0.0488 3.655500667080126 4.593320786493722 35.4595430227165 2 1 1
2676 383 2 0.1996 5.2881329673527775 3.908312618621837 30.97434513629227 1 0 0
3579 512 2 0.1996 7.772821949044838 5.21863509542846 39.06116801313021 1 0 -2
1407 201 7 0.4256 4.07973681818045 11.049323049523684 32.63512402931654 0 0 -1
3851 551 1 -0.5742 7.529337652454961 10.550411520500859 35.58922528304074 1 0 -1
182 26 7 0.4256 7.43413265224717 8.719555157220066 32.24450129943444 0 1 0
1694 242 7 0.4256 5.3898960296553895 6.544019328983799 39.64184331288688 1 0 -1
3982 569 6 0.0488 7.728504986208689 9.129182142181579 38.628936691909125 1 -1 -1
2998 429 2 0.1996 7.223045945124731 18.94939647491112 11.571301719281182 1 0 -1
2125 304 4 0.4256 5.365646945533387 12.772948173127908 4.746554064005541 0 1 2
1698 243 4 0.4256 5.0241585272442375 13.647271830114477 8.911351435589332 0 1 1
772 111 2 0.1996 7.14581171245754 18.740779092029914 3.7225711033234403 -1 -1 1
5063 724 2 0.1996 3.546590852292239 20.405451433755566 11.596542964592343 0 0 1
2127 304 6 0.0488 6.622586379485263 14.062259047329686 6.133990405092316 0 1 2
2054 294 3 -0.5742 6.741791275825237 13.22469186569591 9.24997316189338 1 -1 1
3002 429 6 0.0488 6.434757009783392 19.3412796527949 10.917049530100057 1 0 -1
1565 224 4 0.4256 4.4105446168645885 19.7937259423593 6.408292296051928 0 1 1
2126 304 5 0.0488 5.65773650290878 12.709099468363661 6.830028809569985 0 1 2
3588 513 4 0.4256 6.421951530189753 16.994650466488718 7.834368132981323 0 1 0
5066 724 5 0.0488 3.8197817569815014 21.350605322099792 11.16579070387099 0 0 1
5064 724 3 -0.5742 3.719325893565792 19.48159878955672 10.596657663496659 0 0 1
1695 243 1 -0.5742 4.138702783920953 14.022790279541237 8.608234817688446 0 1 1
3585 513 1 -0.5742 7.226900279312897 16.460607802331392 7.606199465299831 0 1 0
777 111 7 0.4256 6.51260198536051 19.373808558026948 5.401532923311501 -1 -1 1
2122 304 1 -0.5742 6.221515343723811 12.50283566852277 4.920777412109299 0 1 2
773 111 3 -0.5742 7.238173429704716 19.59260799030711 4.82702629782277 -1 -1 1
1563 224 2 0.1996 5.64574633228807 19.40768797180961 7.822153017332437 0 1 1
1564 224 3 -0.5742 5.279626819778666 18.224963720816262 8.479964829626617 0 1 1
2128 304 7 0.4256 7.702595038572106 12.501898339184677 7.536894028682441 0 1 2
1568 224 7 0.4256 4.499172103052235 18.462466730491375 8.911424768413191 0 1 1
2974 425 6 0.0488 4.903981598297899 15.24151159867857 4.813205058467687 1 -1 0
1567 224 6 0.0488 6.6960846933325655 19.457944820422163 7.859690541561005 0 1 1
2123 304 2 0.1996 6.500416466833846 12.966989350703816 6.191376501423069 0 1 2
2058 294 7 0.4256 6.678847247735362 12.517992401450087 9.912610736604881 1 -1 1
2971 425 3 -0.5742 3.463887196095379 13.908771699713721 4.878605496553193 1 -1 0
2056 294 5 0.0488 7.371399044728113 15.049888660590948 9.92289124334137 1 -1 1
2970 425 2 0.1996 4.044646586612232 14.99305287246072 4.201342378147098 1 -1 0
2053 294 2 0.1996 7.770378958040415 14.048940889048694 9.692961563749062 1 -1 1
1562 224 1 -0.5742 5.235030711222474 19.39966004763477 6.459305043327328 0 1 1
1566 224 5 0.0488 5.2079914485956635 20.242435622444784 8.365490545785224 0 1 1
4821 689 5 0.0488 5.278640714620366 15.129305580253146 11.420155849757217 1 -1 1
4822 689 6 0.0488 5.415049650090371 16.668303628109648 12.324268251940909 1 -1 1
1524 218 5 0.0488 3.785914454273935 15.880445588854716 6.6061723945117565 0 1 0
1974 282 7 0.4256 7.619854298118476 21.307617088229996 4.021033940980432 1 0 1
391 56 6 0.0488 3.588969212919605 21.09433256775215 4.531333477476325 0 0 0
1240 178 1 -0.5742 7.62471775062569 21.4121459300265 9.489910793612264 0 0 0
4818 689 2 0.1996 5.252970268169091 15.558554421609266 12.397329248014152 1 -1 1
3000 429 4 0.4256 7.659558241010161 17.836776330064854 10.037340629269757 1 0 -1
775 111 5 0.0488 6.129786458529022 18.386229433310714 3.5600901699163536 -1 -1 1
2973 425 5 0.0488 3.3943055968828406 15.83465300391148 4.093907280617918 1 -1 0
2124 304 3 -0.5742 7.6321201285186255 12.413878067554755 6.612758728124611 0 1 2
458 66 3 -0.5742 3.691242200254448 20.174738092162862 18.306446987246506 0 0 1
3327 476 2 0.1996 3.9819143119426363 14.262414191380675 16.35839371948809 0 0 0
3509 502 2 0.1996 4.341760889805271 18.2154008597138 15.786202027113744 1 0 0
961 138 2 0.1996 6.822636181603479 13.08691825901462 19.08726985967259 0 1 -1
3332 476 7 0.4256 5.360015782217054 14.58839909615564 17.68113975312598 0 0 0
960 138 1 -0.5742 6.076581123655621 13.89146160997522 19.917562168258474 0 1 -1
2215 317 3 -0.5742 6.401162511755954 18.823872756279403 21.047126336803075 0 1 -1
4641 663 7 0.4256 7.572654181218812 20.45481229669245 20.110916345783963 1 0 0
462 66 7 0.4256 3.4536815627051842 19.372473499568496 17.774217846470762 0 0 1
1915 274 4 0.4256 5.022207085198758 15.446039755078978 20.107495870877667 0 0 0
3510 502 3 -0.5742 3.950808139792619 17.774803179315473 17.02933963489236 1 0 0
4819 689 3 -0.5742 3.956963062951921 15.46190999265594 12.954187807554911 1 -1 1
4820 689 4 0.4256 6.488635107509565 15.530289999977825 13.826771949989597 1 -1 1
3514 502 7 0.4256 4.363034155719238 16.91622799936684 17.230584480539896 1 0 0
4823 689 7 0.4256 3.6657210604771793 14.550577169546195 12.986550002195633 1 -1 1
3478 497 6 0.0488 6.756803330658451 17.43080929831528 18.02815849114313 0 0 0
1912 274 1 -0.5742 4.845499504231648 16.27802108452295 20.506059306899722 0 0 0
3513 502 6 0.0488 5.0935347301237055 17.643070400835132 15.24536135112923 1 0 0
3330 476 5 0.0488 3.794856303234929 14.97776121600942 15.528704156447757 0 0 0
3474 497 2 0.1996 7.841487910789518 17.550969067043873 18.233195221177482 0 0 0
966 138 7 0.4256 7.090284443223606 12.613153907638676 17.27628419469404 0 1 -1
5062 724 1 -0.5742 4.35501935262659 20.013836313364298 12.70420584889137 0 0 1
3001 429 5 0.0488 6.84775571850436 18.56082219654265 12.54307744646937 1 0 -1
1913 274 2 0.1996 3.5748457468488817 16.309534683040564 21.132536153131504 0 0 0
4817 689 1 -0.5742 6.186485545590534 14.917737821621493 13.196754393207417 1 -1 1
2217 317 5 0.0488 4.774182861874545 20.159925011358474 20.70824787592181 0 1 -1
55 8 6 0.0488 5.92509932529677 20.618979189525096 16.75573977664572 -1 1 1
5065 724 4 0.4256 4.237667743791275 20.765235132361433 13.231390449039816 0 0 1
4112 588 3 -0.5742 3.4691924231465796 12.795327799227287 19.51515053516374 1 1 1
3328 476 3 -0.5742 4.425911837828669 14.929494561396236 17.477382389989575 0 0 0
3512 502 5 0.0488 4.7186161687858075 19.22839185064495 15.75654499351539 1 0 0
3331 476 6 0.0488 4.606095998392026 13.51677980256029 15.831414901307149 0 0 0
2214 317 2 0.1996 5.521781965687384 19.809624926128137 21.44780518917952 0 1 -1
963 138 4 0.4256 5.780748176396168 13.316218632106448 20.625660890391956 0 1 -1
1473 211 3 -0.5742 7.787872165845881 16.81179015473715 15.243040622348268 0 0 0
2219 317 7 0.4256 5.905523181848992 18.162728516294532 20.595472754056185 0 1 -1
962 138 3 -0.5742 6.500954230303739 13.167420695708273 17.789404940998544 0 1 -1
4116 588 7 0.4256 3.562796913936121 13.28603659500336 18.66683753109174 1 1 1
1477 211 7 0.4256 7.80073652271096 17.212284643102304 16.102311827692503 0 0 0
1678 240 5 0.0488 7.706748016411504 14.08918253136082 14.904255149518193 -1 0 0
2520 360 7 0.4256 6.958235083137954 14.633058430580753 22.58744680228515 1 0 1
4956 708 7 0.4256 4.784095789778738 14.391963403668008 26.862717118451442 1 0 -1
2516 360 3 -0.5742 7.816585295636106 14.960032382683 22.607821782221258 1 0 1
4651 665 3 -0.5742 6.483644290173931 13.265135263565863 28.01248042031514 1 0 0
3131 448 2 0.1996 5.394233075216054 21.35036535306682 28.74667830257691 0 1 1
4156 594 5 0.0488 6.305381457387468 19.68257833751432 25.19062097092207 1 0 2
2003 287 1 -0.5742 4.338437922603143 18.61709366667906 30.261997266029546 0 0 1
3429 490 6 0.0488 4.643497547995187 14.490245113434234 30.5276892522895 1 1 1
2901 415 3 -0.5742 7.497183566744668 16.994594593119174 28.519540050401105 1 0 0
4953 708 4 0.4256 3.7711032518908763 17.06283492316242 27.359988142129936 1 0 -1
4952 708 3 -0.5742 4.141304631230211 14.774674213520726 26.204350185582992 1 0 -1
4955 708 6 0.0488 4.485205221825552 16.812346350369385 25.31713966409961 1 0 -1
2218 317 6 0.0488 5.0974372143930875 19.4384694095113 22.383912500945474 0 1 -1
4951 708 2 0.1996 4.789198901019744 16.066420760415536 26.063665353870075 1 0 -1
2006 287 4 0.4256 3.5146744767240508 18.156150336401303 30.12797669815012 0 0 1
2903 415 5 0.0488 6.89605535101364 16.374626667458895 30.406998918881914 1 0 0
2213 317 1 -0.5742 6.265764472484303 20.836201447024067 21.972939553943636 0 1 -1
2905 415 7 0.4256 6.597734205087733 16.868542942130574 28.214690355279476 1 0 0
4652 665 4 0.4256 6.802280885944943 14.047875918405236 25.27650117012403 1 0 0
2711 388 2 0.1996 4.487059839070761 12.981045664305213 22.90145447720026 0 1 -1
4954 708 5 0.0488 5.794325927248984 15.864225261114303 25.740231519363284 1 0 -1
4649 665 1 -0.5742 6.43853242261074 13.318327172329596 25.795661475919733 1 0 0
2519 360 6 0.0488 6.772328084424782 16.77647918313365 22.41206386919149 1 0 1
2713 388 4 0.4256 4.669197927770963 14.702082989077354 22.312533250213875 0 1 -1
3130 448 1 -0.5742 5.24933255014608 20.32500163672818 27.815492219868354 0 1 1
4158 594 7 0.4256 7.128662192589887 19.564793975753716 22.985154902817097 1 0 2
4950 708 1 -0.5742 4.721021762936268 16.761557556487173 27.2394584293709 1 0 -1
2710 388 1 -0.5742 5.285775845060739 14.01969230039846 22.51507736477112 0 1 -1
4153 594 2 0.1996 7.2950522033184235 19.826294424647262 24.873972493147374 1 0 2
4154 594 3 -0.5742 7.669125704887852 19.19789624419998 23.67419943994376 1 0 2
4650 665 2 0.1996 7.295602913654286 12.998202540287064 26.89913777160762 1 0 0
3133 448 4 0.4256 5.114003294958901 19.49916875729376 28.349685194925616 0 1 1
3134 448 5 0.0488 5.907327905503603 20.97077682654081 29.630045915989786 0 1 1
2904 415 6 0.0488 7.4154812277071604 15.21885346702523 29.19388126904899 1 0 0
2900 415 2 0.1996 7.591038057357629 16.171511555549124 29.619673943929957 1 0 0
2715 388 6 0.0488 4.360328502130173 12.922103296349498 23.974630809783797 0 1 -1
1914 274 3 -0.5742 3.4891058641752988 16.054272225289523 22.49381779164357 0 0 0
4152 594 1 -0.5742 7.372915190468824 21.242558126579834 24.741180646298215 1 0 2
2714 388 5 0.0488 3.516192346843515 13.103029626019044 22.371659564040755 0 1 -1
2515 360 2 0.1996 7.790969027462366 16.320123924448097 22.310393573704395 1 0 1
4655 665 7 0.4256 6.298021619199131 12.402770148680794 28.491675276481445 1 0 0
4756 680 3 -0.5742 6.8717839521915165 15.75249993158269 39.00502998977474 2 0 -1
2004 287 2 0.1996 4.146955423041641 19.170315261442713 31.577889369461534 0 0 1
4680 669 4 0.4256 5.6603318880953815 12.761043695401778 35.132480848418666 2 0 -1
4143 592 6 0.0488 6.943595444218687 19.553697653751765 34.76545885963531 1 0 0
2005 287 3 -0.5742 3.6466564753340296 20.480131244054835 31.43818323598634 0 0 1
2007 287 5 0.0488 5.118371261092039 19.051669862733892 32.11553460259331 0 0 1
4678 669 2 0.1996 4.254672975432245 13.942735564990802 35.616981547093395 2 0 -1
3825 547 3 -0.5742 3.9696389643046928 20.536208385660995 36.61942299259239 1 1 0
3853 551 3 -0.5742 7.453389951659772 12.803619805073584 35.95101754976535 1 0 -1
4759 680 6 0.0488 7.482997531067053 14.445693725720037 37.5834272731953 2 0 -1
2009 287 7 0.4256 3.9845312712688497 21.032606349057723 32.14114490053074 0 0 1
3829 547 7 0.4256 4.039245959350998 21.198150412393083 37.357761063489306 1 1 0
4677 669 1 -0.5742 4.869155385481726 13.051227152479175 34.74728348452094 2 0 -1
3430 490 7 0.4256 5.324914702170393 14.370420670540469 33.32257401254464 1 1 1
3931 562 4 0.4256 6.829823280185959 13.854541485515 31.876228338594913 0 0 0
3424 490 1 -0.5742 4.914857913273166 12.803568083529616 31.51055353611777 1 1 1
623 89 7 0.4256 3.574547826469423 16.668607053911643 35.005057855478455 2 0 0
4681 669 5 0.0488 4.4750287425618405 13.62703426739725 36.63162594501157 2 0 -1
3426 490 3 -0.5742 5.436052548970625 14.683058770103031 32.41574994925765 1 1 1
4760 680 7 0.4256 7.354437078812898 16.442374221519152 39.44509398068122 2 0 -1
3676 526 1 -0.5742 4.472429861947333 21.2259228529274 34.00339376599739 3 0 0
4234 605 6 0.0488 7.304850941046664 20.495538734208054 31.241931838910826 0 0 -1
4139 592 2 0.1996 7.24027238743048 19.19941652491124 35.84198171114329 1 0 0
4679 669 3 -0.5742 4.701150304178682 15.243630915415409 35.39462572133106 2 0 -1
4230 605 2 0.1996 7.548258544464893 21.238882695436356 32.05282177718095 0 0 -1
2972 425 4 0.4256 5.388710849273967 15.045151540339067 39.15169611594682 1 -1 -1
4142 592 5 0.0488 6.411529303530374 18.798986470276265 36.33367716713926 1 0 0
3425 490 2 0.1996 4.511745235393912 14.103628078513605 31.542039582023897 1 1 1
2969 425 1 -0.5742 4.5675231834842585 14.557809997347707 39.37556217048175 1 -1 -1
4683 669 7 0.4256 5.532115251508271 15.353394097475565 35.81154054206692 2 0 -1
3428 490 5 0.0488 3.546456170005667 14.179592116144438 31.949351691978812 1 1 1
3427 490 4 0.4256 4.67572227069021 12.420649615695346 30.67997370676418 1 1 1
4144 592 7 0.4256 7.582780567877374 21.10986688731267 36.14420692177772 1 0 0
3679 526 4 0.4256 4.255739929668779 20.963843010367235 34.88030250310603 3 0 0
4233 605 5 0.0488 7.094617416519504 20.729919018194988 32.87251990304704 0 0 -1
4757 680 4 0.4256 7.283798679506425 16.746383720506675 36.417440406832704 2 0 -1
4755 680 2 0.1996 7.466097469242996 15.464456762813423 37.78859373157704 2 0 -1
4754 680 1 -0.5742 6.735797931660084 16.090928690191532 36.79162029510423 2 0 -1
2008 287 6 0.0488 3.3453645751737744 18.51151976787469 31.940821854765314 0 0 1
3928 562 1 -0.5742 7.786708410688049 13.77333457871634 31.897046514345504 0 0 0
776 111 6 0.0488 7.479553026649468 19.34455189736376 39.27357333540132 -1 -1 0
4140 592 3 -0.5742 7.649874975895793 20.289291309479488 36.63088734420842 1 0 0
2111 302 4 0.4256 5.278158912313285 29.79927241490404 11.889984985143826 2 0 0
513 74 2 0.1996 6.714126579956529 26.76902911015328 6.388414796680516 1 1 1
3289 470 6 0.0488 5.587186960952208 26.773871207256644 9.463609497968076 0 0 -1
388 56 3 -0.5742 4.341866983565285 22.501385047802653 5.761345100266675 0 0 0
515 74 4 0.4256 6.624547233621543 28.65011675622825 6.95219919166702 1 1 1
3210 459 4 0.4256 6.798451589447721 24.64537530108383 10.419461291534397 0 0 2
4704 672 7 0.4256 4.294821278698767 25.39761255074832 4.346819561161597 2 0 2
1085 155 7 0.4256 4.766407774749235 23.145708660409383 10.695081226403428 1 1 0
518 74 7 0.4256 6.441692625776819 26.195893975374606 4.58704145520759 1 1 1
1083 155 5 0.0488 3.8875344838060837 23.1244361707169 8.852188243970035 1 1 0
3288 470 5 0.0488 5.9305573179804 28.458198476513385 9.23051274755067 0 0 -1
392 56 7 0.4256 4.250862058463216 23.380512970729527 5.250775399510732 0 0 0
1059 152 2 0.1996 3.315468541947219 28.986550809180226 4.907641376095912 1 -1 1
1079 155 1 -0.5742 5.745646257251767 22.949991934551704 8.060910793456532 1 1 0
1058 152 1 -0.5742 3.6177878353729076 30.350256947806894 4.815197812306922 1 -1 1
514 74 3 -0.5742 5.965903260389947 26.072641530058092 5.390162476332129 1 1 1
1080 155 2 0.1996 4.79574888231978 23.600904239473692 8.859113228330962 1 1 0
3207 459 1 -0.5742 7.467890938844396 25.259467227808706 10.867791912259529 0 0 2
1060 152 3 -0.5742 4.391261719627302 28.250730935134662 4.364154115625851 1 -1 1
1082 155 4 0.4256 5.388018786171468 22.572338571587714 7.244715680633586 1 1 0
3284 470 1 -0.5742 4.1164461447239225 28.06235843610197 10.263522053287248 0 0 -1
3286 470 3 -0.5742 5.985463556173147 27.86420543584043 11.239907399298687 0 0 -1
1064 152 7 0.4256 4.89314504844311 27.928590050548276 5.102432790501277 1 -1 1
1084 155 6 0.0488 4.668530656073108 24.55395062851432 8.431608771595908 1 1 0
512 74 1 -0.5742 5.953531916403063 28.00494720068282 6.627899184639921 1 1 1
516 74 5 0.0488 6.692223416913863 26.184015155249316 7.326932341999692 1 1 1
1822 261 2 0.1996 3.637400991099458 25.323211618159593 12.2852799414193 1 -1 0
3287 470 4 0.4256 3.7715363716998223 27.32946076250008 10.69248630669572 0 0 -1
3285 470 2 0.1996 5.444283467709893 27.78665928118389 9.91857429685492 0 0 -1
1081 155 3 -0.5742 5.387452709316717 23.510931883973054 10.10683735443762 1 1 0
4700 672 3 -0.5742 3.5671580133207077 24.743231682835106 4.392191058330979 2 0 2
1826 261 6 0.0488 4.596345128683837 25.528357839727587 11.762630945295005 1 -1 0
517 74 6 0.0488 7.762165540451878 26.866419529682936 6.151237582693371 1 1 1
3290 470 7 0.4256 6.634978031001398 27.163637578264616 11.302980322765357 0 0 -1
1243 178 4 0.4256 7.028636907442232 22.025714213154366 9.037541122655435 0 0 0
1492 214 1 -0.5742 7.21411816121669 30.515620666351325 6.9785546704019445 0 0 1
2084 298 5 0.0488 4.525433531090224 30.35951320889413 8.876045299860694 1 -1 0
1498 214 7 0.4256 5.506713399295252 30.428574751059273 5.055235923948468 0 0 1
1823 261 3 -0.5742 3.303338856393102 23.991025562325675 11.849885306586609 1 -1 0
4204 601 4 0.4256 3.794149503376227 29.246197518608515 14.712874338201399 2 -1 0
2863 409 7 0.4256 3.9031521711228527 27.740987858204836 19.004748569807774 1 0 -1
269 39 3 -0.5742 5.250302755374983 24.877961733715686 16.705622349359484 0 -1 -1
3484 498 5 0.0488 5.884921835203508 27.231252638641408 13.872891393351486 0 -1 0
3486 498 7 0.4256 6.11306159131019 29.626071917929284 14.825573087389692 0 -1 0
54 8 5 0.0488 6.963869302540722 21.66106384631336 17.516622538086658 -1 1 1
270 39 4 0.4256 3.892629379757201 25.390406335558602 18.6537011376627 0 -1 -1
3675 525 7 0.4256 5.107333137026793 22.299195576880056 14.54568160910368 1 0 0
4206 601 6 0.0488 3.395409222351582 28.986908585462583 16.622364333331706 2 -1 0